 Entering Gaussian System, Link 0=g16
 Input=NH2-PHZ-dummy2-Mn-6.com
 Output=NH2-PHZ-dummy2-Mn-6.log
 Initial command:
 /soft/gaussian/16-c.01/g16/l1.exe "/scratch/Gau-30910.inp" -scrdir="/scratch/"
 Default CPUs for threads: 0-35
 Default linda workers: bdwd-0052
 Default is to use  36 SMP processors on each worker.
 Entering Link 1 = /soft/gaussian/16-c.01/g16/l1.exe PID=     30911.
  
 Copyright (c) 1988-2019, Gaussian, Inc.  All Rights Reserved.
  
 This is part of the Gaussian(R) 16 program.  It is based on
 the Gaussian(R) 09 system (copyright 2009, Gaussian, Inc.),
 the Gaussian(R) 03 system (copyright 2003, Gaussian, Inc.),
 the Gaussian(R) 98 system (copyright 1998, Gaussian, Inc.),
 the Gaussian(R) 94 system (copyright 1995, Gaussian, Inc.),
 the Gaussian 92(TM) system (copyright 1992, Gaussian, Inc.),
 the Gaussian 90(TM) system (copyright 1990, Gaussian, Inc.),
 the Gaussian 88(TM) system (copyright 1988, Gaussian, Inc.),
 the Gaussian 86(TM) system (copyright 1986, Carnegie Mellon
 University), and the Gaussian 82(TM) system (copyright 1983,
 Carnegie Mellon University). Gaussian is a federally registered
 trademark of Gaussian, Inc.
  
 This software contains proprietary and confidential information,
 including trade secrets, belonging to Gaussian, Inc.
  
 This software is provided under written license and may be
 used, copied, transmitted, or stored only in accord with that
 written license.
  
 The following legend is applicable only to US Government
 contracts under FAR:
  
                    RESTRICTED RIGHTS LEGEND
  
 Use, reproduction and disclosure by the US Government is
 subject to restrictions as set forth in subparagraphs (a)
 and (c) of the Commercial Computer Software - Restricted
 Rights clause in FAR 52.227-19.
  
 Gaussian, Inc.
 340 Quinnipiac St., Bldg. 40, Wallingford CT 06492
  
  
 ---------------------------------------------------------------
 Warning -- This program may not be used in any manner that
 competes with the business of Gaussian, Inc. or will provide
 assistance to any competitor of Gaussian, Inc.  The licensee
 of this program is prohibited from giving any competitor of
 Gaussian, Inc. access to this program.  By using this program,
 the user acknowledges that Gaussian, Inc. is engaged in the
 business of creating and licensing software in the field of
 computational chemistry and represents and warrants to the
 licensee that it is not a competitor of Gaussian, Inc. and that
 it will not use this program in any manner prohibited above.
 ---------------------------------------------------------------
  

 Cite this work as:
 Gaussian 16, Revision C.01,
 M. J. Frisch, G. W. Trucks, H. B. Schlegel, G. E. Scuseria, 
 M. A. Robb, J. R. Cheeseman, G. Scalmani, V. Barone, 
 G. A. Petersson, H. Nakatsuji, X. Li, M. Caricato, A. V. Marenich, 
 J. Bloino, B. G. Janesko, R. Gomperts, B. Mennucci, H. P. Hratchian, 
 J. V. Ortiz, A. F. Izmaylov, J. L. Sonnenberg, D. Williams-Young, 
 F. Ding, F. Lipparini, F. Egidi, J. Goings, B. Peng, A. Petrone, 
 T. Henderson, D. Ranasinghe, V. G. Zakrzewski, J. Gao, N. Rega, 
 G. Zheng, W. Liang, M. Hada, M. Ehara, K. Toyota, R. Fukuda, 
 J. Hasegawa, M. Ishida, T. Nakajima, Y. Honda, O. Kitao, H. Nakai, 
 T. Vreven, K. Throssell, J. A. Montgomery, Jr., J. E. Peralta, 
 F. Ogliaro, M. J. Bearpark, J. J. Heyd, E. N. Brothers, K. N. Kudin, 
 V. N. Staroverov, T. A. Keith, R. Kobayashi, J. Normand, 
 K. Raghavachari, A. P. Rendell, J. C. Burant, S. S. Iyengar, 
 J. Tomasi, M. Cossi, J. M. Millam, M. Klene, C. Adamo, R. Cammi, 
 J. W. Ochterski, R. L. Martin, K. Morokuma, O. Farkas, 
 J. B. Foresman, and D. J. Fox, Gaussian, Inc., Wallingford CT, 2019.
 
 ******************************************
 Gaussian 16:  ES64L-G16RevC.01  3-Jul-2019
                19-Apr-2022 
 ******************************************
 %oldchk=NH2-PHZ-dummy2-Mn-6.chk
 %chk=NH2-PHZ-dummy2-Mn-6-Raman
 SetSPE:  set environment variable "MP_BIND" = "yes"
 SetSPE:  set environment variable "MP_BLIST" = "0,1,2,3,4,5,6,7,8,9,10,11,12,13,14,15,16,17,18,19,20,21,22,23,24,25,26,27,28,29,30,31,32,33,34,35"
 SetLPE:  input flags="-vv "
 SetLPE:    new flags="-vv -opt 'Tsnet.Node.lindarsharg: ssh'  -nodelist 'bdwd-0052.lcrc.anl.gov' -env GAUSS_MDEF=13421772800 -env GAUSS_EXEDIR="/soft/gaussian/16-c.01/g16/bsd:/soft/gaussian/16-c.01/g16" -env "MP_BIND=yes" -env "MP_BLIST=0,1,2,3,4,5,6,7,8,9,10,11,12,13,14,15,16,17,18,19,20,21,22,23,24,25,26,27,28,29,30,31,32,33,34,35" -env GAUSS_ADEF="0,1,2,3,4,5,6,7,8,9,10,11,12,13,14,15,16,17,18,19,20,21,22,23,24,25,26,27,28,29,30,31,32,33,34,35""
 Will use up to    1 processors via Linda.
 Copying data from "NH2-PHZ-dummy2-Mn-6.chk" to current chk file "NH2-PHZ-dummy2-Mn-6-Raman.chk"
 IOpt=  2 FromEx=T IUOpen= 4 IOptOp= 5 NList=   0 IFRang= 0 IUIn= 4 IUOut= 2.
 ----------------------------------------------------------------------
 #p uwb97xd geom=allcheck guess=read chkbasis Freq=(ReadFC,Raman) opt s
 crf=(cpcm,solvent=water)
 ----------------------------------------------------------------------
 1/18=20,19=15,26=3,29=7,38=1/1,3;
 2/9=110,12=2,40=1/2;
 3/5=7,6=2,11=2,14=-4,25=1,30=1,67=1,70=2101,71=1,72=1,74=-58,116=2/1,2,3;
 4/5=1/1;
 5/5=2,38=6,53=1/2;
 6/7=2,8=2,9=2,10=2,28=1/1;
 7//1,2,3,16;
 1/18=20,19=15,26=3/3(2);
 2/9=110/2;
 99//99;
 2/9=110/2;
 3/5=7,6=1,11=2,14=-2,25=1,30=1,70=2105,71=1,72=1,74=-58,82=7,116=2/1,2,3;
 4/5=5,16=3,69=1/1;
 5/5=2,38=5,53=1/2;
 7//1,2,3,16;
 1/18=20,19=15,26=3/3(-5);
 2/9=110/2;
 6/7=2,8=2,9=2,10=2,19=2,28=1/1;
 99/9=1/99;
 Leave Link    1 at Tue Apr 19 19:41:38 2022, MaxMem= 13421772800 cpu:              21.5 elap:               0.6
 (Enter /soft/gaussian/16-c.01/g16/l101.exe)
 Structure from the checkpoint file:  "NH2-PHZ-dummy2-Mn-6-Raman.chk"
 -----
 Title
 -----
 Charge =  2 Multiplicity = 6
 Redundant internal coordinates found in file.  (old form).
 C,0,3.5633805825,0.6034167211,-0.6648563671
 C,0,3.535662328,-0.8505703455,-0.7619697336
 C,0,2.3407597655,-1.5299927626,-0.7042035127
 C,0,1.1056450283,-0.8519299757,-0.6075543978
 C,0,1.1326731161,0.5983923086,-0.5739234075
 C,0,2.3850948008,1.2783286331,-0.5956077186
 N,0,0.0276864157,1.3128145553,-0.497241326
 C,0,-1.1493358928,0.6642112856,-0.4513308782
 C,0,-2.3429490464,1.4290134268,-0.3652975135
 C,0,-3.5591790233,0.8116070993,-0.317510907
 C,0,-3.6299332408,-0.6023901289,-0.3545825096
 C,0,-2.4967328894,-1.3646883221,-0.4382172049
 C,0,-1.2168465843,-0.756886017,-0.4887087578
 N,0,-0.0744291224,-1.4971189807,-0.568601606
 H,0,2.3876285613,-2.6096593598,-0.7699103372
 H,0,2.3638675716,2.3601262743,-0.5277587727
 H,0,-2.2460315131,2.5085084064,-0.3394851559
 H,0,-4.4708570065,1.3935992645,-0.2513735662
 H,0,-4.5970601562,-1.090503709,-0.3158224848
 H,0,-2.6062011489,-2.4408920488,-0.4632665065
 N,0,4.794720659,1.2270345296,-0.7179759805
 H,0,4.7716062408,2.225303934,-0.5676965337
 H,0,5.5347996897,0.7934734666,-0.1825607784
 N,0,4.7283939222,-1.4986319277,-0.8662350383
 H,0,5.5008633167,-1.0117699626,-1.2944396716
 H,0,4.7122154658,-2.4892736548,-1.0518113542
 Mn,0,-0.2147952598,-3.6688105703,-0.6428298996
 Recover connectivity data from disk.
 ITRead=  0  0  0  0  0  0  0  0  0  0  0  0  0  0  0  0  0  0  0  0
 ITRead=  0  0  0  0  0  0  0
 MicOpt= -1 -1 -1 -1 -1 -1 -1 -1 -1 -1 -1 -1 -1 -1 -1 -1 -1 -1 -1 -1
 MicOpt= -1 -1 -1 -1 -1 -1 -1
 NAtoms=     27 NQM=       27 NQMF=       0 NMMI=      0 NMMIF=      0
                NMic=       0 NMicF=      0.
                    Isotopes and Nuclear Properties:
 (Nuclear quadrupole moments (NQMom) in fm**2, nuclear magnetic moments (NMagM)
  in nuclear magnetons)

  Atom         1           2           3           4           5           6           7           8           9          10
 IAtWgt=          12          12          12          12          12          12          14          12          12          12
 AtmWgt=  12.0000000  12.0000000  12.0000000  12.0000000  12.0000000  12.0000000  14.0030740  12.0000000  12.0000000  12.0000000
 NucSpn=           0           0           0           0           0           0           2           0           0           0
 AtZEff=   3.6000000   3.6000000   3.6000000   3.6000000   3.6000000   3.6000000   4.5500000   3.6000000   3.6000000   3.6000000
 NQMom=    0.0000000   0.0000000   0.0000000   0.0000000   0.0000000   0.0000000   2.0440000   0.0000000   0.0000000   0.0000000
 NMagM=    0.0000000   0.0000000   0.0000000   0.0000000   0.0000000   0.0000000   0.4037610   0.0000000   0.0000000   0.0000000
 AtZNuc=   6.0000000   6.0000000   6.0000000   6.0000000   6.0000000   6.0000000   7.0000000   6.0000000   6.0000000   6.0000000

  Atom        11          12          13          14          15          16          17          18          19          20
 IAtWgt=          12          12          12          14           1           1           1           1           1           1
 AtmWgt=  12.0000000  12.0000000  12.0000000  14.0030740   1.0078250   1.0078250   1.0078250   1.0078250   1.0078250   1.0078250
 NucSpn=           0           0           0           2           1           1           1           1           1           1
 AtZEff=   3.6000000   3.6000000   3.6000000   4.5500000   1.0000000   1.0000000   1.0000000   1.0000000   1.0000000   1.0000000
 NQMom=    0.0000000   0.0000000   0.0000000   2.0440000   0.0000000   0.0000000   0.0000000   0.0000000   0.0000000   0.0000000
 NMagM=    0.0000000   0.0000000   0.0000000   0.4037610   2.7928460   2.7928460   2.7928460   2.7928460   2.7928460   2.7928460
 AtZNuc=   6.0000000   6.0000000   6.0000000   7.0000000   1.0000000   1.0000000   1.0000000   1.0000000   1.0000000   1.0000000

  Atom        21          22          23          24          25          26          27
 IAtWgt=          14           1           1          14           1           1          55
 AtmWgt=  14.0030740   1.0078250   1.0078250  14.0030740   1.0078250   1.0078250  54.9380463
 NucSpn=           2           1           1           2           1           1           5
 AtZEff=   4.5500000   1.0000000   1.0000000   4.5500000   1.0000000   1.0000000  25.0000000
 NQMom=    2.0440000   0.0000000   0.0000000   2.0440000   0.0000000   0.0000000  33.0000000
 NMagM=    0.4037610   2.7928460   2.7928460   0.4037610   2.7928460   2.7928460   3.4532000
 AtZNuc=   7.0000000   1.0000000   1.0000000   7.0000000   1.0000000   1.0000000  25.0000000
 Leave Link  101 at Tue Apr 19 19:41:39 2022, MaxMem= 13421772800 cpu:              12.9 elap:               0.4
 (Enter /soft/gaussian/16-c.01/g16/l103.exe)

 GradGradGradGradGradGradGradGradGradGradGradGradGradGradGradGradGradGrad
 Berny optimization.
 Initialization pass.
                           ----------------------------
                           !    Initial Parameters    !
                           ! (Angstroms and Degrees)  !
 --------------------------                            --------------------------
 ! Name  Definition              Value          Derivative Info.                !
 --------------------------------------------------------------------------------
 ! R1    R(1,2)                  1.4575         estimate D2E/DX2                !
 ! R2    R(1,6)                  1.3597         estimate D2E/DX2                !
 ! R3    R(1,21)                 1.3813         estimate D2E/DX2                !
 ! R4    R(2,3)                  1.3758         estimate D2E/DX2                !
 ! R5    R(2,24)                 1.3614         estimate D2E/DX2                !
 ! R6    R(3,4)                  1.4123         estimate D2E/DX2                !
 ! R7    R(3,15)                 1.0827         estimate D2E/DX2                !
 ! R8    R(4,5)                  1.451          estimate D2E/DX2                !
 ! R9    R(4,14)                 1.3455         estimate D2E/DX2                !
 ! R10   R(5,6)                  1.4253         estimate D2E/DX2                !
 ! R11   R(5,7)                  1.3181         estimate D2E/DX2                !
 ! R12   R(6,16)                 1.0841         estimate D2E/DX2                !
 ! R13   R(7,8)                  1.3447         estimate D2E/DX2                !
 ! R14   R(8,9)                  1.4202         estimate D2E/DX2                !
 ! R15   R(8,13)                 1.4232         estimate D2E/DX2                !
 ! R16   R(9,10)                 1.3648         estimate D2E/DX2                !
 ! R17   R(9,17)                 1.0841         estimate D2E/DX2                !
 ! R18   R(10,11)                1.4163         estimate D2E/DX2                !
 ! R19   R(10,18)                1.0836         estimate D2E/DX2                !
 ! R20   R(11,12)                1.3683         estimate D2E/DX2                !
 ! R21   R(11,19)                1.084          estimate D2E/DX2                !
 ! R22   R(12,13)                1.4178         estimate D2E/DX2                !
 ! R23   R(12,20)                1.082          estimate D2E/DX2                !
 ! R24   R(13,14)                1.3636         estimate D2E/DX2                !
 ! R25   R(14,27)                2.1775         estimate D2E/DX2                !
 ! R26   R(21,22)                1.0098         estimate D2E/DX2                !
 ! R27   R(21,23)                1.0111         estimate D2E/DX2                !
 ! R28   R(24,25)                1.0085         estimate D2E/DX2                !
 ! R29   R(24,26)                1.008          estimate D2E/DX2                !
 ! A1    A(2,1,6)              118.8229         estimate D2E/DX2                !
 ! A2    A(2,1,21)             117.6964         estimate D2E/DX2                !
 ! A3    A(6,1,21)             123.3937         estimate D2E/DX2                !
 ! A4    A(1,2,3)              120.4231         estimate D2E/DX2                !
 ! A5    A(1,2,24)             117.6013         estimate D2E/DX2                !
 ! A6    A(3,2,24)             121.9414         estimate D2E/DX2                !
 ! A7    A(2,3,4)              121.6908         estimate D2E/DX2                !
 ! A8    A(2,3,15)             116.8931         estimate D2E/DX2                !
 ! A9    A(4,3,15)             121.3849         estimate D2E/DX2                !
 ! A10   A(3,4,5)              117.7227         estimate D2E/DX2                !
 ! A11   A(3,4,14)             122.6003         estimate D2E/DX2                !
 ! A12   A(5,4,14)             119.6679         estimate D2E/DX2                !
 ! A13   A(4,5,6)              119.5293         estimate D2E/DX2                !
 ! A14   A(4,5,7)              121.838          estimate D2E/DX2                !
 ! A15   A(6,5,7)              118.6194         estimate D2E/DX2                !
 ! A16   A(1,6,5)              121.701          estimate D2E/DX2                !
 ! A17   A(1,6,16)             121.029          estimate D2E/DX2                !
 ! A18   A(5,6,16)             117.2503         estimate D2E/DX2                !
 ! A19   A(5,7,8)              118.3175         estimate D2E/DX2                !
 ! A20   A(7,8,9)              118.553          estimate D2E/DX2                !
 ! A21   A(7,8,13)             121.4841         estimate D2E/DX2                !
 ! A22   A(9,8,13)             119.9629         estimate D2E/DX2                !
 ! A23   A(8,9,10)             120.4949         estimate D2E/DX2                !
 ! A24   A(8,9,17)             117.5492         estimate D2E/DX2                !
 ! A25   A(10,9,17)            121.956          estimate D2E/DX2                !
 ! A26   A(9,10,11)            119.687          estimate D2E/DX2                !
 ! A27   A(9,10,18)            120.5912         estimate D2E/DX2                !
 ! A28   A(11,10,18)           119.7218         estimate D2E/DX2                !
 ! A29   A(10,11,12)           121.0946         estimate D2E/DX2                !
 ! A30   A(10,11,19)           119.5512         estimate D2E/DX2                !
 ! A31   A(12,11,19)           119.3542         estimate D2E/DX2                !
 ! A32   A(11,12,13)           120.729          estimate D2E/DX2                !
 ! A33   A(11,12,20)           118.147          estimate D2E/DX2                !
 ! A34   A(13,12,20)           121.1239         estimate D2E/DX2                !
 ! A35   A(8,13,12)            118.0316         estimate D2E/DX2                !
 ! A36   A(8,13,14)            120.2547         estimate D2E/DX2                !
 ! A37   A(12,13,14)           121.7136         estimate D2E/DX2                !
 ! A38   A(4,14,13)            118.436          estimate D2E/DX2                !
 ! A39   A(4,14,27)            122.262          estimate D2E/DX2                !
 ! A40   A(13,14,27)           119.3007         estimate D2E/DX2                !
 ! A41   A(1,21,22)            114.8474         estimate D2E/DX2                !
 ! A42   A(1,21,23)            116.0104         estimate D2E/DX2                !
 ! A43   A(22,21,23)           111.214          estimate D2E/DX2                !
 ! A44   A(2,24,25)            118.2787         estimate D2E/DX2                !
 ! A45   A(2,24,26)            117.8954         estimate D2E/DX2                !
 ! A46   A(25,24,26)           114.1145         estimate D2E/DX2                !
 ! D1    D(6,1,2,3)             -3.8167         estimate D2E/DX2                !
 ! D2    D(6,1,2,24)           178.2693         estimate D2E/DX2                !
 ! D3    D(21,1,2,3)           179.4577         estimate D2E/DX2                !
 ! D4    D(21,1,2,24)            1.5437         estimate D2E/DX2                !
 ! D5    D(2,1,6,5)              1.9775         estimate D2E/DX2                !
 ! D6    D(2,1,6,16)          -179.6767         estimate D2E/DX2                !
 ! D7    D(21,1,6,5)           178.5048         estimate D2E/DX2                !
 ! D8    D(21,1,6,16)           -3.1494         estimate D2E/DX2                !
 ! D9    D(2,1,21,22)         -174.9974         estimate D2E/DX2                !
 ! D10   D(2,1,21,23)          -42.9561         estimate D2E/DX2                !
 ! D11   D(6,1,21,22)            8.4387         estimate D2E/DX2                !
 ! D12   D(6,1,21,23)          140.48           estimate D2E/DX2                !
 ! D13   D(1,2,3,4)              2.7283         estimate D2E/DX2                !
 ! D14   D(1,2,3,15)          -179.2751         estimate D2E/DX2                !
 ! D15   D(24,2,3,4)          -179.4502         estimate D2E/DX2                !
 ! D16   D(24,2,3,15)           -1.4535         estimate D2E/DX2                !
 ! D17   D(1,2,24,25)          -28.2663         estimate D2E/DX2                !
 ! D18   D(1,2,24,26)         -172.3335         estimate D2E/DX2                !
 ! D19   D(3,2,24,25)          153.8535         estimate D2E/DX2                !
 ! D20   D(3,2,24,26)            9.7862         estimate D2E/DX2                !
 ! D21   D(2,3,4,5)              0.1541         estimate D2E/DX2                !
 ! D22   D(2,3,4,14)           179.0526         estimate D2E/DX2                !
 ! D23   D(15,3,4,5)          -177.7529         estimate D2E/DX2                !
 ! D24   D(15,3,4,14)            1.1455         estimate D2E/DX2                !
 ! D25   D(3,4,5,6)             -1.9803         estimate D2E/DX2                !
 ! D26   D(3,4,5,7)            179.3663         estimate D2E/DX2                !
 ! D27   D(14,4,5,6)           179.0877         estimate D2E/DX2                !
 ! D28   D(14,4,5,7)             0.4343         estimate D2E/DX2                !
 ! D29   D(3,4,14,13)         -179.3245         estimate D2E/DX2                !
 ! D30   D(3,4,14,27)            0.2371         estimate D2E/DX2                !
 ! D31   D(5,4,14,13)           -0.4467         estimate D2E/DX2                !
 ! D32   D(5,4,14,27)          179.1149         estimate D2E/DX2                !
 ! D33   D(4,5,6,1)              0.8723         estimate D2E/DX2                !
 ! D34   D(4,5,6,16)          -177.5332         estimate D2E/DX2                !
 ! D35   D(7,5,6,1)            179.5691         estimate D2E/DX2                !
 ! D36   D(7,5,6,16)             1.1636         estimate D2E/DX2                !
 ! D37   D(4,5,7,8)             -0.0808         estimate D2E/DX2                !
 ! D38   D(6,5,7,8)           -178.7461         estimate D2E/DX2                !
 ! D39   D(5,7,8,9)            179.8452         estimate D2E/DX2                !
 ! D40   D(5,7,8,13)            -0.2306         estimate D2E/DX2                !
 ! D41   D(7,8,9,10)           179.9456         estimate D2E/DX2                !
 ! D42   D(7,8,9,17)            -0.0666         estimate D2E/DX2                !
 ! D43   D(13,8,9,10)            0.0202         estimate D2E/DX2                !
 ! D44   D(13,8,9,17)         -179.992          estimate D2E/DX2                !
 ! D45   D(7,8,13,12)         -179.8972         estimate D2E/DX2                !
 ! D46   D(7,8,13,14)            0.2073         estimate D2E/DX2                !
 ! D47   D(9,8,13,12)            0.026          estimate D2E/DX2                !
 ! D48   D(9,8,13,14)         -179.8695         estimate D2E/DX2                !
 ! D49   D(8,9,10,11)           -0.0235         estimate D2E/DX2                !
 ! D50   D(8,9,10,18)          179.9701         estimate D2E/DX2                !
 ! D51   D(17,9,10,11)         179.9892         estimate D2E/DX2                !
 ! D52   D(17,9,10,18)          -0.0171         estimate D2E/DX2                !
 ! D53   D(9,10,11,12)          -0.021          estimate D2E/DX2                !
 ! D54   D(9,10,11,19)         179.9588         estimate D2E/DX2                !
 ! D55   D(18,10,11,12)        179.9852         estimate D2E/DX2                !
 ! D56   D(18,10,11,19)         -0.0349         estimate D2E/DX2                !
 ! D57   D(10,11,12,13)          0.0689         estimate D2E/DX2                !
 ! D58   D(10,11,12,20)        179.9914         estimate D2E/DX2                !
 ! D59   D(19,11,12,13)       -179.911          estimate D2E/DX2                !
 ! D60   D(19,11,12,20)          0.0115         estimate D2E/DX2                !
 ! D61   D(11,12,13,8)          -0.0701         estimate D2E/DX2                !
 ! D62   D(11,12,13,14)        179.8237         estimate D2E/DX2                !
 ! D63   D(20,12,13,8)        -179.9903         estimate D2E/DX2                !
 ! D64   D(20,12,13,14)         -0.0965         estimate D2E/DX2                !
 ! D65   D(8,13,14,4)            0.1477         estimate D2E/DX2                !
 ! D66   D(8,13,14,27)        -179.4272         estimate D2E/DX2                !
 ! D67   D(12,13,14,4)        -179.7438         estimate D2E/DX2                !
 ! D68   D(12,13,14,27)          0.6813         estimate D2E/DX2                !
 --------------------------------------------------------------------------------
 Trust Radius=3.00D-01 FncErr=1.00D-07 GrdErr=1.00D-06 EigMax=2.50D+02 EigMin=1.00D-04
 Number of steps in this run=    153 maximum allowed number of steps=    162.
 GradGradGradGradGradGradGradGradGradGradGradGradGradGradGradGradGradGrad

 Leave Link  103 at Tue Apr 19 19:41:39 2022, MaxMem= 13421772800 cpu:               0.8 elap:               0.1
 (Enter /soft/gaussian/16-c.01/g16/l202.exe)
                          Input orientation:                          
 ---------------------------------------------------------------------
 Center     Atomic      Atomic             Coordinates (Angstroms)
 Number     Number       Type             X           Y           Z
 ---------------------------------------------------------------------
      1          6           0        3.563381    0.603417   -0.664856
      2          6           0        3.535662   -0.850570   -0.761970
      3          6           0        2.340760   -1.529993   -0.704204
      4          6           0        1.105645   -0.851930   -0.607554
      5          6           0        1.132673    0.598392   -0.573923
      6          6           0        2.385095    1.278329   -0.595608
      7          7           0        0.027686    1.312815   -0.497241
      8          6           0       -1.149336    0.664211   -0.451331
      9          6           0       -2.342949    1.429013   -0.365298
     10          6           0       -3.559179    0.811607   -0.317511
     11          6           0       -3.629933   -0.602390   -0.354583
     12          6           0       -2.496733   -1.364688   -0.438217
     13          6           0       -1.216847   -0.756886   -0.488709
     14          7           0       -0.074429   -1.497119   -0.568602
     15          1           0        2.387629   -2.609659   -0.769910
     16          1           0        2.363868    2.360126   -0.527759
     17          1           0       -2.246032    2.508508   -0.339485
     18          1           0       -4.470857    1.393599   -0.251374
     19          1           0       -4.597060   -1.090504   -0.315822
     20          1           0       -2.606201   -2.440892   -0.463267
     21          7           0        4.794721    1.227035   -0.717976
     22          1           0        4.771606    2.225304   -0.567697
     23          1           0        5.534800    0.793473   -0.182561
     24          7           0        4.728394   -1.498632   -0.866235
     25          1           0        5.500863   -1.011770   -1.294440
     26          1           0        4.712215   -2.489274   -1.051811
     27         25           0       -0.214795   -3.668811   -0.642830
 ---------------------------------------------------------------------
                    Distance matrix (angstroms):
                    1          2          3          4          5
     1  C    0.000000
     2  C    1.457490   0.000000
     3  C    2.459225   1.375770   0.000000
     4  C    2.856883   2.434919   1.412310   0.000000
     5  C    2.432413   2.812332   2.450810   1.450964   0.000000
     6  C    1.359654   2.425632   2.810770   2.484982   1.425252
     7  N    3.610052   4.129917   3.670789   2.420802   1.318057
     8  C    4.717943   4.933586   4.130284   2.721769   2.286247
     9  C    5.971271   6.317588   5.550469   4.141762   3.579582
    10  C    7.134062   7.300490   6.359395   4.961055   4.703688
    11  C    7.300274   7.181457   6.052426   4.748891   4.916544
    12  C    6.375718   6.062914   4.847619   3.642626   4.128521
    13  C    4.973130   4.761280   3.647012   2.327472   2.713721
    14  N    4.201806   3.672625   2.419216   1.345497   2.418324
    15  H    3.423052   2.100581   1.082679   2.181617   3.450351
    16  H    2.131585   3.425862   3.894187   3.450623   2.149809
    17  H    6.122459   6.699992   6.122186   4.753750   3.888335
    18  H    8.083584   8.330748   7.426343   6.022179   5.668857
    19  H    8.341702   8.148484   6.962567   5.715144   5.979032
    20  H    6.882746   6.351443   5.035892   4.040225   4.819614
    21  N    1.381275   2.429734   3.690977   4.235985   3.718405
    22  H    2.024788   3.320588   4.475478   4.786463   3.986065
    23  H    2.038437   2.652385   3.984030   4.743984   4.423792
    24  N    2.411725   1.361420   2.393331   3.689099   4.172789
    25  H    2.599816   2.042431   3.256254   4.451438   4.710929
    26  H    3.321790   2.038047   2.581638   3.985675   4.751335
    27  Mn   5.703247   4.692825   3.333042   3.111209   4.475426
                    6          7          8          9         10
     6  C    0.000000
     7  N    2.359712   0.000000
     8  C    3.590286   1.344684   0.000000
     9  C    4.736048   2.377146   1.420224   0.000000
    10  C    5.969050   3.626171   2.418052   1.364804   0.000000
    11  C    6.306803   4.131167   2.786934   2.404796   1.416252
    12  C    5.553607   3.680380   2.435587   2.798881   2.424794
    13  C    4.138539   2.415077   1.423191   2.462010   2.824181
    14  N    3.708517   2.812694   2.416718   3.708068   4.187690
    15  H    3.891894   4.585791   4.830097   6.233214   6.875627
    16  H    1.084131   2.560378   3.901867   4.800780   6.125732
    17  H    4.798570   2.573784   2.148647   1.084144   2.145766
    18  H    6.865556   4.505982   3.406537   2.131250   1.083626
    19  H    7.378356   5.215087   3.870942   3.381040   2.166847
    20  H    6.226006   4.585720   3.429908   3.880086   3.392368
    21  N    2.413276   4.772913   5.976594   7.149231   8.373804
    22  H    2.567680   4.831395   6.124386   7.161839   8.453586
    23  H    3.213461   5.540491   6.690786   7.905456   9.094998
    24  N    3.643597   5.489721   6.276762   7.669807   8.621031
    25  H    3.929495   5.999574   6.909768   8.267171   9.293194
    26  H    4.451791   6.058732   6.683025   8.099359   8.935937
    27  Mn   5.588904   4.989648   4.436791   5.531173   5.600435
                   11         12         13         14         15
    11  C    0.000000
    12  C    1.368297   0.000000
    13  C    2.421744   1.417774   0.000000
    14  N    3.672595   2.429422   1.363615   0.000000
    15  H    6.357097   5.051431   4.062522   2.709243   0.000000
    16  H    6.688209   6.124353   4.747505   4.563475   4.975738
    17  H    3.404864   3.882557   3.426994   4.562171   6.917493
    18  H    2.168358   3.397091   3.907621   5.271192   7.958253
    19  H    1.084016   2.121681   3.401034   4.547903   7.162395
    20  H    2.107114   1.082047   2.183307   2.704010   5.006081
    21  N    8.628652   7.743422   6.334623   5.581393   4.529571
    22  H    8.867194   8.107624   6.690386   6.110687   5.394544
    23  H    9.272020   8.320369   6.934123   6.071185   4.672363
    24  N    8.421797   7.239033   6.003216   4.812037   2.592845
    25  H    9.188165   8.051038   6.770657   5.643252   3.538448
    26  H    8.581253   7.321894   6.202582   4.912212   2.344710
    27  Mn   4.598825   3.249321   3.083369   2.177489   2.812572
                   16         17         18         19         20
    16  H    0.000000
    17  H    4.616128   0.000000
    18  H    6.908258   2.490107   0.000000
    19  H    7.772148   4.298928   2.488142   0.000000
    20  H    6.910537   4.964032   4.269094   2.410147   0.000000
    21  N    2.688703   7.166423   9.278814   9.681852   8.263910
    22  H    2.411841   7.027057   9.285199   9.941324   8.730197
    23  H    3.553642   7.969147  10.023874  10.306392   8.764463
    24  N    4.538234   8.060847   9.662778   9.350594   7.405844
    25  H    4.668857   8.562633  10.310625  10.145538   8.273919
    26  H    5.413506   8.596653  10.002311   9.442502   7.342203
    27  Mn   6.558264   6.509778   6.625352   5.094982   2.694225
                   21         22         23         24         25
    21  N    0.000000
    22  H    1.009782   0.000000
    23  H    1.011119   1.667613   0.000000
    24  N    2.730501   3.736133   2.524173   0.000000
    25  H    2.417270   3.396854   2.120455   1.008515   0.000000
    26  H    3.732184   4.739740   3.494091   1.008004   1.692292
    27  Mn   7.005012   7.720779   7.292576   5.403212   6.336656
                   26         27
    26  H    0.000000
    27  Mn   5.082717   0.000000
 Stoichiometry    C12H10MnN4(2+,6)
 Framework group  C1[X(C12H10MnN4)]
 Deg. of freedom    75
 Full point group                 C1      NOp   1
 RotChk:  IX=0 Diff= 1.33D-15
 Largest Abelian subgroup         C1      NOp   1
 Largest concise Abelian subgroup C1      NOp   1
                         Standard orientation:                         
 ---------------------------------------------------------------------
 Center     Atomic      Atomic             Coordinates (Angstroms)
 Number     Number       Type             X           Y           Z
 ---------------------------------------------------------------------
      1          6           0       -3.153383   -1.049010    0.021192
      2          6           0       -2.996005    0.399383   -0.019662
      3          6           0       -1.741989    0.964795    0.002624
      4          6           0       -0.571673    0.174257    0.007936
      5          6           0       -0.731087   -1.267749   -0.014448
      6          6           0       -2.040615   -1.830066    0.002246
      7          7           0        0.305485   -2.081818   -0.023721
      8          6           0        1.538295   -1.544929   -0.013554
      9          6           0        2.658801   -2.417546   -0.020103
     10          6           0        3.927810   -1.915322   -0.011339
     11          6           0        4.127186   -0.513257    0.003898
     12          6           0        3.066647    0.351302    0.009597
     13          6           0        1.735087   -0.135493    0.001828
     14          7           0        0.663521    0.707781    0.010867
     15          1           0       -1.691902    2.046122   -0.017809
     16          1           0       -2.116298   -2.911290    0.026067
     17          1           0        2.463804   -3.483943   -0.031986
     18          1           0        4.783869   -2.579693   -0.015831
     19          1           0        5.136056   -0.116754    0.011515
     20          1           0        3.273859    1.413256    0.021457
     21          7           0       -4.438251   -1.555812    0.007647
     22          1           0       -4.500355   -2.557741    0.116927
     23          1           0       -5.108362   -1.081186    0.597600
     24          7           0       -4.127312    1.156577   -0.035967
     25          1           0       -4.961256    0.760915   -0.442282
     26          1           0       -4.028539    2.148923   -0.182816
     27         25           0        1.000424    2.859044    0.015363
 ---------------------------------------------------------------------
 Rotational constants (GHZ):           0.5956659           0.2946941           0.1972582
 Leave Link  202 at Tue Apr 19 19:41:40 2022, MaxMem= 13421772800 cpu:               0.8 elap:               0.1
 (Enter /soft/gaussian/16-c.01/g16/l301.exe)
 Basis read from chk: "NH2-PHZ-dummy2-Mn-6-Raman.chk" (6D, 7F)
 No pseudopotential information found on chk file.
 There are   687 symmetry adapted cartesian basis functions of A   symmetry.
 There are   627 symmetry adapted basis functions of A   symmetry.
   627 basis functions,   980 primitive gaussians,   687 cartesian basis functions
    69 alpha electrons       64 beta electrons
       nuclear repulsion energy      1336.8815914606 Hartrees.
 IExCor= 4639 DFT=T Ex+Corr=wB97XD ExCW=0 ScaHFX=  1.000000
 ScaDFX=  1.000000  1.000000  1.000000  1.000000 ScalE2=  1.000000  1.000000
 IRadAn=      5 IRanWt=     -1 IRanGd=            0 ICorTp=0 IEmpDi=121
 HFx  wShort=  0.000000 wLong=  0.200000 cFull=  0.222036 cShort=  0.000000 cLong=  0.777964
 DFx  wShort=  0.000000 wLong=  0.200000 cFull=  0.000000 cShort=  0.000000 cLong=  1.000000
 NAtoms=   27 NActive=   27 NUniq=   27 SFac= 1.00D+00 NAtFMM=   60 NAOKFM=F Big=F
 Integral buffers will be    131072 words long.
 Raffenetti 2 integral format.
 Two-electron integral symmetry is turned on.
 R6Disp:  Grimme-D2 Dispersion energy=       -0.0184367652 Hartrees.
 Nuclear repulsion after empirical dispersion term =     1336.8631546954 Hartrees.
 No density basis found on file  20724.
 ------------------------------------------------------------------------------
 Polarizable Continuum Model (PCM)
 =================================
 Model                : C-PCM.
 Atomic radii         : UFF (Universal Force Field).
 Polarization charges : Total charges.
 Charge compensation  : None.
 Solution method      : On-the-fly selection.
 Cavity type          : Scaled VdW (van der Waals Surface) (Alpha=1.100).
 Cavity algorithm     : GePol (No added spheres)
                        Default sphere list used, NSphG=   27.
                        Lebedev-Laikov grids with approx.  5.0 points / Ang**2.
                        Smoothing algorithm: York/Karplus (Gamma=1.0000).
                        Polarization charges: spherical gaussians, with
                                              point-specific exponents (IZeta= 3).
                        Self-potential: point-specific (ISelfS= 7).
                        Self-field    : sphere-specific E.n sum rule (ISelfD= 2).
 1st derivatives      : Analytical E(r).r(x)/FMM algorithm (CHGder, D1EAlg=3).
                        Cavity 1st derivative terms included.
 Solvent              : Water, Eps=  78.355300 Eps(inf)=   1.777849
 ------------------------------------------------------------------------------
 GePol: Number of generator spheres                  =      27
 GePol: Total number of spheres                      =      27
 GePol: Number of exposed spheres                    =      27 (100.00%)
 GePol: Number of points                             =    2142
 GePol: Average weight of points                     =       0.13
 GePol: Minimum weight of points                     =   0.35D-10
 GePol: Maximum weight of points                     =    0.21276
 GePol: Number of points with low weight             =     125
 GePol: Fraction of low-weight points (<1% of avg)   =       5.84%
 GePol: Cavity surface area                          =    279.984 Ang**2
 GePol: Cavity volume                                =    296.941 Ang**3
 Leave Link  301 at Tue Apr 19 19:41:40 2022, MaxMem= 13421772800 cpu:               2.8 elap:               0.1
 (Enter /soft/gaussian/16-c.01/g16/l302.exe)
 NPDir=0 NMtPBC=     1 NCelOv=     1 NCel=       1 NClECP=     1 NCelD=      1
         NCelK=      1 NCelE2=     1 NClLst=     1 CellRange=     0.0.
 One-electron integrals computed using PRISM.
 One-electron integral symmetry used in STVInt
 NBasis=   627 RedAO= T EigKep=  1.19D-06  NBF=   627
 NBsUse=   624 1.00D-06 EigRej=  7.90D-07 NBFU=   624
 Precomputing XC quadrature grid using
 IXCGrd= 4 IRadAn=           5 IRanWt=          -1 IRanGd=           0 AccXCQ= 0.00D+00.
 Generated NRdTot=       0 NPtTot=           0 NUsed=           0 NTot=          32
 NSgBfM=   684   684   684   684   684 MxSgAt=    27 MxSgA2=    27.
 Leave Link  302 at Tue Apr 19 19:41:41 2022, MaxMem= 13421772800 cpu:              22.8 elap:               0.7
 (Enter /soft/gaussian/16-c.01/g16/l303.exe)
 DipDrv:  MaxL=1.
 Leave Link  303 at Tue Apr 19 19:41:41 2022, MaxMem= 13421772800 cpu:               2.4 elap:               0.1
 (Enter /soft/gaussian/16-c.01/g16/l401.exe)
 Initial guess from the checkpoint file:  "NH2-PHZ-dummy2-Mn-6-Raman.chk"
 B after Tr=     0.000000   -0.000000   -0.000000
         Rot=    1.000000    0.000000   -0.000000    0.000000 Ang=   0.00 deg.
 Guess basis will be translated and rotated to current coordinates.
 JPrj=2 DoOrth=T DoCkMO=T.
 Initial guess <Sx>= 0.0000 <Sy>= 0.0000 <Sz>= 2.5000 <S**2>= 8.7524 S= 2.5004
 Leave Link  401 at Tue Apr 19 19:41:42 2022, MaxMem= 13421772800 cpu:              34.8 elap:               1.0
 (Enter /soft/gaussian/16-c.01/g16/l502.exe)
 Integral symmetry usage will be decided dynamically.
 UHF open shell SCF:
 Using DIIS extrapolation, IDIIS=  1040.
 NGot= 13421772800 LenX= 13420797655 LenY= 13420324999
 Requested convergence on RMS density matrix=1.00D-08 within 128 cycles.
 Requested convergence on MAX density matrix=1.00D-06.
 Requested convergence on             energy=1.00D-06.
 No special actions if energy rises.
 Fock matrices will be formed incrementally for  20 cycles.

 Cycle   1  Pass 1  IDiag  1:
 FoFJK:  IHMeth= 1 ICntrl=       0 DoSepK=T KAlg= 0 I1Cent=           0 FoldK=F
 IRaf=         1 NMat=       1 IRICut=       1 DoRegI=T DoRafI=F ISym2E= 0 IDoP0=0 IntGTp=1.
 FoFCou: FMM=F IPFlag=           0 FMFlag=      100000 FMFlg1=           0
         NFxFlg=           0 DoJE=T BraDBF=F KetDBF=F FulRan=T
         wScrn=  0.000000 ICntrl=       500 IOpCl=  0 I1Cent=           0 NGrid=           0
         NMat0=    1 NMatS0=      1 NMatT0=    0 NMatD0=    1 NMtDS0=    0 NMtDT0=    0
 Symmetry not used in FoFCou.
 Inv3:  Mode=1 IEnd=    13764492.
 Iteration    1 A*A^-1 deviation from unit magnitude is 3.33D-15 for    987.
 Iteration    1 A*A^-1 deviation from orthogonality  is 2.47D-15 for   1778   1409.
 Iteration    1 A^-1*A deviation from unit magnitude is 3.11D-15 for   1456.
 Iteration    1 A^-1*A deviation from orthogonality  is 2.13D-15 for   1100    450.
 E= -1832.87231407408    
 DIIS: error= 7.00D-09 at cycle   1 NSaved=   1.
 NSaved= 1 IEnMin= 1 EnMin= -1832.87231407408     IErMin= 1 ErrMin= 7.00D-09
 ErrMax= 7.00D-09  0.00D+00 EMaxC= 1.00D-01 BMatC= 6.41D-14 BMatP= 6.41D-14
 IDIUse=1 WtCom= 1.00D+00 WtEn= 0.00D+00
 Coeff-Com:  0.100D+01
 Coeff:      0.100D+01
 Gap=     0.246 Goal=   None    Shift=    0.000
 Gap=     0.244 Goal=   None    Shift=    0.000
 RMSDP=1.72D-09 MaxDP=1.23D-07              OVMax= 2.04D-07

 Error on total polarization charges =  0.01703
 SCF Done:  E(UwB97XD) =  -1832.87231407     A.U. after    1 cycles
            NFock=  1  Conv=0.17D-08     -V/T= 2.0040
 <Sx>= 0.0000 <Sy>= 0.0000 <Sz>= 2.5000 <S**2>= 8.7524 S= 2.5004
 <L.S>=  0.00000000000    
 KE= 1.825543364305D+03 PE=-6.951469284428D+03 EE= 1.956190451353D+03
 Annihilation of the first spin contaminant:
 S**2 before annihilation     8.7524,   after     8.7500
 Leave Link  502 at Tue Apr 19 19:42:03 2022, MaxMem= 13421772800 cpu:             733.3 elap:              21.0
 (Enter /soft/gaussian/16-c.01/g16/l601.exe)
 Copying SCF densities to generalized density rwf, IOpCl= 1 IROHF=0.

 **********************************************************************

            Population analysis using the SCF Density.

 **********************************************************************

 Orbital symmetries:
 Alpha Orbitals:
       Occupied  (A) (A) (A) (A) (A) (A) (A) (A) (A) (A) (A) (A)
                 (A) (A) (A) (A) (A) (A) (A) (A) (A) (A) (A) (A)
                 (A) (A) (A) (A) (A) (A) (A) (A) (A) (A) (A) (A)
                 (A) (A) (A) (A) (A) (A) (A) (A) (A) (A) (A) (A)
                 (A) (A) (A) (A) (A) (A) (A) (A) (A) (A) (A) (A)
                 (A) (A) (A) (A) (A) (A) (A) (A) (A)
       Virtual   (A) (A) (A) (A) (A) (A) (A) (A) (A) (A) (A) (A)
                 (A) (A) (A) (A) (A) (A) (A) (A) (A) (A) (A) (A)
                 (A) (A) (A) (A) (A) (A) (A) (A) (A) (A) (A) (A)
                 (A) (A) (A) (A) (A) (A) (A) (A) (A) (A) (A) (A)
                 (A) (A) (A) (A) (A) (A) (A) (A) (A) (A) (A) (A)
                 (A) (A) (A) (A) (A) (A) (A) (A) (A) (A) (A) (A)
                 (A) (A) (A) (A) (A) (A) (A) (A) (A) (A) (A) (A)
                 (A) (A) (A) (A) (A) (A) (A) (A) (A) (A) (A) (A)
                 (A) (A) (A) (A) (A) (A) (A) (A) (A) (A) (A) (A)
                 (A) (A) (A) (A) (A) (A) (A) (A) (A) (A) (A) (A)
                 (A) (A) (A) (A) (A) (A) (A) (A) (A) (A) (A) (A)
                 (A) (A) (A) (A) (A) (A) (A) (A) (A) (A) (A) (A)
                 (A) (A) (A) (A) (A) (A) (A) (A) (A) (A) (A) (A)
                 (A) (A) (A) (A) (A) (A) (A) (A) (A) (A) (A) (A)
                 (A) (A) (A) (A) (A) (A) (A) (A) (A) (A) (A) (A)
                 (A) (A) (A) (A) (A) (A) (A) (A) (A) (A) (A) (A)
                 (A) (A) (A) (A) (A) (A) (A) (A) (A) (A) (A) (A)
                 (A) (A) (A) (A) (A) (A) (A) (A) (A) (A) (A) (A)
                 (A) (A) (A) (A) (A) (A) (A) (A) (A) (A) (A) (A)
                 (A) (A) (A) (A) (A) (A) (A) (A) (A) (A) (A) (A)
                 (A) (A) (A) (A) (A) (A) (A) (A) (A) (A) (A) (A)
                 (A) (A) (A) (A) (A) (A) (A) (A) (A) (A) (A) (A)
                 (A) (A) (A) (A) (A) (A) (A) (A) (A) (A) (A) (A)
                 (A) (A) (A) (A) (A) (A) (A) (A) (A) (A) (A) (A)
                 (A) (A) (A) (A) (A) (A) (A) (A) (A) (A) (A) (A)
                 (A) (A) (A) (A) (A) (A) (A) (A) (A) (A) (A) (A)
                 (A) (A) (A) (A) (A) (A) (A) (A) (A) (A) (A) (A)
                 (A) (A) (A) (A) (A) (A) (A) (A) (A) (A) (A) (A)
                 (A) (A) (A) (A) (A) (A) (A) (A) (A) (A) (A) (A)
                 (A) (A) (A) (A) (A) (A) (A) (A) (A) (A) (A) (A)
                 (A) (A) (A) (A) (A) (A) (A) (A) (A) (A) (A) (A)
                 (A) (A) (A) (A) (A) (A) (A) (A) (A) (A) (A) (A)
                 (A) (A) (A) (A) (A) (A) (A) (A) (A) (A) (A) (A)
                 (A) (A) (A) (A) (A) (A) (A) (A) (A) (A) (A) (A)
                 (A) (A) (A) (A) (A) (A) (A) (A) (A) (A) (A) (A)
                 (A) (A) (A) (A) (A) (A) (A) (A) (A) (A) (A) (A)
                 (A) (A) (A) (A) (A) (A) (A) (A) (A) (A) (A) (A)
                 (A) (A) (A) (A) (A) (A) (A) (A) (A) (A) (A) (A)
                 (A) (A) (A) (A) (A) (A) (A) (A) (A) (A) (A) (A)
                 (A) (A) (A) (A) (A) (A) (A) (A) (A) (A) (A) (A)
                 (A) (A) (A) (A) (A) (A) (A) (A) (A) (A) (A) (A)
                 (A) (A) (A) (A) (A) (A) (A) (A) (A) (A) (A) (A)
                 (A) (A) (A) (A) (A) (A) (A) (A) (A) (A) (A) (A)
                 (A) (A) (A) (A) (A) (A) (A) (A) (A) (A) (A) (A)
                 (A) (A) (A) (A) (A) (A) (A) (A) (A) (A) (A) (A)
                 (A) (A) (A) (A) (A) (A) (A) (A) (A) (A) (A) (A)
                 (A) (A) (A)
 Beta  Orbitals:
       Occupied  (A) (A) (A) (A) (A) (A) (A) (A) (A) (A) (A) (A)
                 (A) (A) (A) (A) (A) (A) (A) (A) (A) (A) (A) (A)
                 (A) (A) (A) (A) (A) (A) (A) (A) (A) (A) (A) (A)
                 (A) (A) (A) (A) (A) (A) (A) (A) (A) (A) (A) (A)
                 (A) (A) (A) (A) (A) (A) (A) (A) (A) (A) (A) (A)
                 (A) (A) (A) (A)
       Virtual   (A) (A) (A) (A) (A) (A) (A) (A) (A) (A) (A) (A)
                 (A) (A) (A) (A) (A) (A) (A) (A) (A) (A) (A) (A)
                 (A) (A) (A) (A) (A) (A) (A) (A) (A) (A) (A) (A)
                 (A) (A) (A) (A) (A) (A) (A) (A) (A) (A) (A) (A)
                 (A) (A) (A) (A) (A) (A) (A) (A) (A) (A) (A) (A)
                 (A) (A) (A) (A) (A) (A) (A) (A) (A) (A) (A) (A)
                 (A) (A) (A) (A) (A) (A) (A) (A) (A) (A) (A) (A)
                 (A) (A) (A) (A) (A) (A) (A) (A) (A) (A) (A) (A)
                 (A) (A) (A) (A) (A) (A) (A) (A) (A) (A) (A) (A)
                 (A) (A) (A) (A) (A) (A) (A) (A) (A) (A) (A) (A)
                 (A) (A) (A) (A) (A) (A) (A) (A) (A) (A) (A) (A)
                 (A) (A) (A) (A) (A) (A) (A) (A) (A) (A) (A) (A)
                 (A) (A) (A) (A) (A) (A) (A) (A) (A) (A) (A) (A)
                 (A) (A) (A) (A) (A) (A) (A) (A) (A) (A) (A) (A)
                 (A) (A) (A) (A) (A) (A) (A) (A) (A) (A) (A) (A)
                 (A) (A) (A) (A) (A) (A) (A) (A) (A) (A) (A) (A)
                 (A) (A) (A) (A) (A) (A) (A) (A) (A) (A) (A) (A)
                 (A) (A) (A) (A) (A) (A) (A) (A) (A) (A) (A) (A)
                 (A) (A) (A) (A) (A) (A) (A) (A) (A) (A) (A) (A)
                 (A) (A) (A) (A) (A) (A) (A) (A) (A) (A) (A) (A)
                 (A) (A) (A) (A) (A) (A) (A) (A) (A) (A) (A) (A)
                 (A) (A) (A) (A) (A) (A) (A) (A) (A) (A) (A) (A)
                 (A) (A) (A) (A) (A) (A) (A) (A) (A) (A) (A) (A)
                 (A) (A) (A) (A) (A) (A) (A) (A) (A) (A) (A) (A)
                 (A) (A) (A) (A) (A) (A) (A) (A) (A) (A) (A) (A)
                 (A) (A) (A) (A) (A) (A) (A) (A) (A) (A) (A) (A)
                 (A) (A) (A) (A) (A) (A) (A) (A) (A) (A) (A) (A)
                 (A) (A) (A) (A) (A) (A) (A) (A) (A) (A) (A) (A)
                 (A) (A) (A) (A) (A) (A) (A) (A) (A) (A) (A) (A)
                 (A) (A) (A) (A) (A) (A) (A) (A) (A) (A) (A) (A)
                 (A) (A) (A) (A) (A) (A) (A) (A) (A) (A) (A) (A)
                 (A) (A) (A) (A) (A) (A) (A) (A) (A) (A) (A) (A)
                 (A) (A) (A) (A) (A) (A) (A) (A) (A) (A) (A) (A)
                 (A) (A) (A) (A) (A) (A) (A) (A) (A) (A) (A) (A)
                 (A) (A) (A) (A) (A) (A) (A) (A) (A) (A) (A) (A)
                 (A) (A) (A) (A) (A) (A) (A) (A) (A) (A) (A) (A)
                 (A) (A) (A) (A) (A) (A) (A) (A) (A) (A) (A) (A)
                 (A) (A) (A) (A) (A) (A) (A) (A) (A) (A) (A) (A)
                 (A) (A) (A) (A) (A) (A) (A) (A) (A) (A) (A) (A)
                 (A) (A) (A) (A) (A) (A) (A) (A) (A) (A) (A) (A)
                 (A) (A) (A) (A) (A) (A) (A) (A) (A) (A) (A) (A)
                 (A) (A) (A) (A) (A) (A) (A) (A) (A) (A) (A) (A)
                 (A) (A) (A) (A) (A) (A) (A) (A) (A) (A) (A) (A)
                 (A) (A) (A) (A) (A) (A) (A) (A) (A) (A) (A) (A)
                 (A) (A) (A) (A) (A) (A) (A) (A) (A) (A) (A) (A)
                 (A) (A) (A) (A) (A) (A) (A) (A) (A) (A) (A) (A)
                 (A) (A) (A) (A) (A) (A) (A) (A)
 The electronic state is 6-A.
 Alpha  occ. eigenvalues -- -235.76976 -27.57844 -23.63291 -23.63243 -23.63057
 Alpha  occ. eigenvalues --  -14.51492 -14.48874 -14.48531 -14.48008 -10.38631
 Alpha  occ. eigenvalues --  -10.38422 -10.37527 -10.37393 -10.36933 -10.35999
 Alpha  occ. eigenvalues --  -10.32809 -10.32738 -10.32235 -10.32161 -10.31891
 Alpha  occ. eigenvalues --  -10.31561  -3.44815  -2.30947  -2.30755  -2.30624
 Alpha  occ. eigenvalues --   -1.11534  -1.07572  -1.04575  -1.02678  -0.98372
 Alpha  occ. eigenvalues --   -0.94067  -0.88599  -0.86639  -0.85190  -0.79365
 Alpha  occ. eigenvalues --   -0.76280  -0.74443  -0.72422  -0.68070  -0.67276
 Alpha  occ. eigenvalues --   -0.65819  -0.62000  -0.60975  -0.59939  -0.59649
 Alpha  occ. eigenvalues --   -0.56557  -0.56369  -0.54551  -0.54367  -0.53787
 Alpha  occ. eigenvalues --   -0.52914  -0.50992  -0.50595  -0.48038  -0.47783
 Alpha  occ. eigenvalues --   -0.46883  -0.46852  -0.46786  -0.46486  -0.46013
 Alpha  occ. eigenvalues --   -0.45753  -0.45438  -0.43123  -0.42235  -0.38375
 Alpha  occ. eigenvalues --   -0.36604  -0.35366  -0.30296  -0.29951
 Alpha virt. eigenvalues --   -0.05339   0.00241   0.02368   0.03720   0.04435
 Alpha virt. eigenvalues --    0.04684   0.05540   0.06350   0.06881   0.07240
 Alpha virt. eigenvalues --    0.07765   0.08222   0.09564   0.10139   0.10822
 Alpha virt. eigenvalues --    0.11165   0.11425   0.11830   0.12181   0.12513
 Alpha virt. eigenvalues --    0.12959   0.14309   0.14409   0.14647   0.14847
 Alpha virt. eigenvalues --    0.15387   0.15788   0.16184   0.16878   0.16955
 Alpha virt. eigenvalues --    0.17996   0.18223   0.18629   0.18849   0.19484
 Alpha virt. eigenvalues --    0.19998   0.20192   0.20550   0.21088   0.21212
 Alpha virt. eigenvalues --    0.21761   0.21997   0.22192   0.23021   0.23401
 Alpha virt. eigenvalues --    0.23509   0.23936   0.25020   0.25490   0.25672
 Alpha virt. eigenvalues --    0.26020   0.26204   0.26435   0.27092   0.27203
 Alpha virt. eigenvalues --    0.27709   0.28110   0.28456   0.28709   0.29361
 Alpha virt. eigenvalues --    0.29408   0.29626   0.30100   0.30281   0.31020
 Alpha virt. eigenvalues --    0.31345   0.31441   0.32223   0.32354   0.32692
 Alpha virt. eigenvalues --    0.33218   0.33563   0.33788   0.34435   0.34768
 Alpha virt. eigenvalues --    0.34970   0.35411   0.36116   0.36235   0.36956
 Alpha virt. eigenvalues --    0.37410   0.37819   0.38206   0.38497   0.39506
 Alpha virt. eigenvalues --    0.40091   0.40164   0.40832   0.41378   0.41446
 Alpha virt. eigenvalues --    0.41839   0.42505   0.43470   0.43812   0.44190
 Alpha virt. eigenvalues --    0.45359   0.45752   0.46437   0.47564   0.47599
 Alpha virt. eigenvalues --    0.49104   0.51159   0.51585   0.53504   0.54375
 Alpha virt. eigenvalues --    0.58299   0.59165   0.59799   0.61358   0.64908
 Alpha virt. eigenvalues --    0.65156   0.66043   0.66960   0.67293   0.69342
 Alpha virt. eigenvalues --    0.69940   0.70359   0.71391   0.71926   0.72225
 Alpha virt. eigenvalues --    0.72705   0.73230   0.73714   0.74089   0.74688
 Alpha virt. eigenvalues --    0.74864   0.76595   0.76992   0.77600   0.78089
 Alpha virt. eigenvalues --    0.78856   0.79618   0.82358   0.82584   0.84154
 Alpha virt. eigenvalues --    0.84745   0.85470   0.86429   0.87318   0.88148
 Alpha virt. eigenvalues --    0.89765   0.89997   0.90156   0.90827   0.91034
 Alpha virt. eigenvalues --    0.91055   0.91180   0.91927   0.93306   0.93539
 Alpha virt. eigenvalues --    0.93888   0.94373   0.94851   0.95157   0.95513
 Alpha virt. eigenvalues --    0.95800   0.96412   0.97040   0.97205   0.98364
 Alpha virt. eigenvalues --    0.98698   0.99635   1.00474   1.00506   1.01895
 Alpha virt. eigenvalues --    1.02225   1.02840   1.03174   1.03681   1.04651
 Alpha virt. eigenvalues --    1.04862   1.05778   1.06164   1.06830   1.08351
 Alpha virt. eigenvalues --    1.08957   1.09305   1.09993   1.11057   1.12056
 Alpha virt. eigenvalues --    1.13656   1.14322   1.15954   1.17347   1.18383
 Alpha virt. eigenvalues --    1.19192   1.21925   1.22301   1.24317   1.24873
 Alpha virt. eigenvalues --    1.26411   1.26949   1.27373   1.28128   1.28944
 Alpha virt. eigenvalues --    1.30736   1.32918   1.34924   1.36569   1.37108
 Alpha virt. eigenvalues --    1.38126   1.39184   1.39600   1.40427   1.43001
 Alpha virt. eigenvalues --    1.43772   1.45716   1.46566   1.47150   1.48461
 Alpha virt. eigenvalues --    1.48993   1.49389   1.49903   1.50206   1.51794
 Alpha virt. eigenvalues --    1.51991   1.54072   1.54339   1.55991   1.56459
 Alpha virt. eigenvalues --    1.56789   1.57268   1.58900   1.59638   1.60950
 Alpha virt. eigenvalues --    1.61439   1.62794   1.63266   1.64423   1.65069
 Alpha virt. eigenvalues --    1.65325   1.66247   1.67318   1.68057   1.68615
 Alpha virt. eigenvalues --    1.68900   1.70083   1.71864   1.72969   1.73569
 Alpha virt. eigenvalues --    1.74620   1.79858   1.80191   1.80696   1.83964
 Alpha virt. eigenvalues --    1.84324   1.86139   1.87343   1.90519   1.92388
 Alpha virt. eigenvalues --    1.93867   1.97561   1.97783   1.99047   2.00323
 Alpha virt. eigenvalues --    2.00878   2.03456   2.05532   2.06517   2.07392
 Alpha virt. eigenvalues --    2.08972   2.10553   2.12303   2.16805   2.19493
 Alpha virt. eigenvalues --    2.21224   2.22044   2.22735   2.25790   2.25977
 Alpha virt. eigenvalues --    2.31412   2.31930   2.33060   2.34599   2.34894
 Alpha virt. eigenvalues --    2.36132   2.37300   2.39482   2.41150   2.44238
 Alpha virt. eigenvalues --    2.44945   2.46518   2.49763   2.52331   2.53619
 Alpha virt. eigenvalues --    2.54485   2.59541   2.65264   2.66526   2.69620
 Alpha virt. eigenvalues --    2.70366   2.71080   2.72432   2.74025   2.77495
 Alpha virt. eigenvalues --    2.78943   2.79169   2.84239   2.88263   2.89454
 Alpha virt. eigenvalues --    2.91050   2.92145   2.93773   2.94524   2.95232
 Alpha virt. eigenvalues --    2.97068   2.98085   3.00857   3.01082   3.01710
 Alpha virt. eigenvalues --    3.02759   3.03924   3.04382   3.04760   3.07158
 Alpha virt. eigenvalues --    3.08177   3.09933   3.10795   3.11154   3.11923
 Alpha virt. eigenvalues --    3.13384   3.14797   3.16007   3.16164   3.17116
 Alpha virt. eigenvalues --    3.17428   3.18602   3.19373   3.20361   3.21675
 Alpha virt. eigenvalues --    3.22855   3.23774   3.24314   3.26127   3.26454
 Alpha virt. eigenvalues --    3.27159   3.28133   3.28733   3.30066   3.30620
 Alpha virt. eigenvalues --    3.32412   3.32743   3.34155   3.34736   3.35141
 Alpha virt. eigenvalues --    3.36523   3.37828   3.38814   3.39635   3.41272
 Alpha virt. eigenvalues --    3.42974   3.45524   3.47371   3.49242   3.50509
 Alpha virt. eigenvalues --    3.51132   3.52941   3.53621   3.55335   3.58285
 Alpha virt. eigenvalues --    3.58479   3.62172   3.62745   3.63768   3.65468
 Alpha virt. eigenvalues --    3.66103   3.67021   3.69266   3.71240   3.72247
 Alpha virt. eigenvalues --    3.72932   3.74055   3.75518   3.77598   3.78433
 Alpha virt. eigenvalues --    3.79592   3.80582   3.82365   3.84776   3.85347
 Alpha virt. eigenvalues --    3.86314   3.87538   3.89255   3.90093   3.92027
 Alpha virt. eigenvalues --    3.93866   3.95788   3.97342   3.98136   3.99832
 Alpha virt. eigenvalues --    4.01628   4.01708   4.01764   4.02014   4.02716
 Alpha virt. eigenvalues --    4.03297   4.04884   4.05344   4.05586   4.06405
 Alpha virt. eigenvalues --    4.10462   4.11118   4.13333   4.13772   4.15585
 Alpha virt. eigenvalues --    4.16540   4.16859   4.18589   4.19614   4.20989
 Alpha virt. eigenvalues --    4.21639   4.22610   4.25366   4.26509   4.27417
 Alpha virt. eigenvalues --    4.27847   4.30048   4.30488   4.34092   4.34639
 Alpha virt. eigenvalues --    4.35400   4.35837   4.37378   4.38602   4.39376
 Alpha virt. eigenvalues --    4.40060   4.41716   4.43134   4.44188   4.44895
 Alpha virt. eigenvalues --    4.45055   4.46033   4.47256   4.48687   4.49053
 Alpha virt. eigenvalues --    4.50658   4.51845   4.52258   4.52755   4.54206
 Alpha virt. eigenvalues --    4.54711   4.55306   4.57132   4.57353   4.58019
 Alpha virt. eigenvalues --    4.59243   4.60033   4.60593   4.61672   4.62780
 Alpha virt. eigenvalues --    4.63212   4.63363   4.64556   4.66275   4.66507
 Alpha virt. eigenvalues --    4.68401   4.68779   4.69252   4.70338   4.71477
 Alpha virt. eigenvalues --    4.72554   4.73492   4.73873   4.74951   4.75506
 Alpha virt. eigenvalues --    4.76266   4.76643   4.78031   4.78585   4.80803
 Alpha virt. eigenvalues --    4.81434   4.82897   4.83834   4.84142   4.87294
 Alpha virt. eigenvalues --    4.89707   4.90399   4.91925   4.92482   4.96667
 Alpha virt. eigenvalues --    4.97216   4.98423   4.99526   5.01904   5.05923
 Alpha virt. eigenvalues --    5.07452   5.10281   5.10968   5.12853   5.14882
 Alpha virt. eigenvalues --    5.16852   5.18818   5.20433   5.22672   5.23981
 Alpha virt. eigenvalues --    5.24981   5.25988   5.28041   5.30058   5.32714
 Alpha virt. eigenvalues --    5.37370   5.38428   5.41022   5.43011   5.45283
 Alpha virt. eigenvalues --    5.48472   5.50782   5.55758   5.57409   5.61422
 Alpha virt. eigenvalues --    5.64203   5.65316   5.71177   5.74681   5.80671
 Alpha virt. eigenvalues --    5.84119   5.85949   5.87477   5.91611   5.91949
 Alpha virt. eigenvalues --    5.95662   5.98341   6.04880   6.05877   6.13915
 Alpha virt. eigenvalues --    6.22108   6.27553   6.41588   6.52888   6.61110
 Alpha virt. eigenvalues --    6.84435   7.01061   8.96992   9.48133  11.10874
 Alpha virt. eigenvalues --   11.33884  11.43146  11.43740  11.54393  11.55274
 Alpha virt. eigenvalues --   11.74626  12.05077  12.05672  12.24503  12.40734
 Alpha virt. eigenvalues --   12.43523  12.57311  12.68381  13.18285  13.61376
 Alpha virt. eigenvalues --   17.26555  18.23402  26.56426  28.35581  38.51631
  Beta  occ. eigenvalues -- -235.76862 -27.49276 -23.56121 -23.56063 -23.55959
  Beta  occ. eigenvalues --  -14.51492 -14.48869 -14.48516 -14.48010 -10.38625
  Beta  occ. eigenvalues --  -10.38408 -10.37530 -10.37382 -10.36936 -10.36004
  Beta  occ. eigenvalues --  -10.32803 -10.32732 -10.32234 -10.32161 -10.31886
  Beta  occ. eigenvalues --  -10.31558  -3.22633  -2.06947  -2.06712  -2.06452
  Beta  occ. eigenvalues --   -1.11500  -1.07565  -1.04537  -1.02675  -0.98361
  Beta  occ. eigenvalues --   -0.94055  -0.88581  -0.86627  -0.85176  -0.79347
  Beta  occ. eigenvalues --   -0.76255  -0.74398  -0.72393  -0.68057  -0.67235
  Beta  occ. eigenvalues --   -0.65782  -0.61988  -0.60938  -0.59819  -0.59643
  Beta  occ. eigenvalues --   -0.56527  -0.56282  -0.54481  -0.54318  -0.53702
  Beta  occ. eigenvalues --   -0.52860  -0.50576  -0.48918  -0.46934  -0.46809
  Beta  occ. eigenvalues --   -0.46327  -0.45992  -0.45626  -0.43187  -0.38379
  Beta  occ. eigenvalues --   -0.36899  -0.35369  -0.30344  -0.29938
  Beta virt. eigenvalues --   -0.05547   0.01560   0.02124   0.02174   0.02277
  Beta virt. eigenvalues --    0.02557   0.02877   0.03689   0.04789   0.05743
  Beta virt. eigenvalues --    0.05994   0.06267   0.07520   0.07698   0.07861
  Beta virt. eigenvalues --    0.08295   0.08378   0.09823   0.10239   0.10885
  Beta virt. eigenvalues --    0.11594   0.11767   0.12037   0.12380   0.12650
  Beta virt. eigenvalues --    0.13320   0.14524   0.14775   0.15107   0.15290
  Beta virt. eigenvalues --    0.15893   0.16421   0.16540   0.17242   0.17679
  Beta virt. eigenvalues --    0.18139   0.18411   0.19067   0.19935   0.20046
  Beta virt. eigenvalues --    0.20303   0.21156   0.21376   0.21628   0.21873
  Beta virt. eigenvalues --    0.22076   0.22305   0.22942   0.23440   0.23628
  Beta virt. eigenvalues --    0.23822   0.24368   0.25285   0.25590   0.25992
  Beta virt. eigenvalues --    0.26344   0.26565   0.26850   0.27249   0.27341
  Beta virt. eigenvalues --    0.28110   0.28257   0.28758   0.29272   0.29490
  Beta virt. eigenvalues --    0.29613   0.30143   0.30568   0.30759   0.31283
  Beta virt. eigenvalues --    0.31685   0.32111   0.32521   0.32546   0.33042
  Beta virt. eigenvalues --    0.33547   0.33749   0.34116   0.34595   0.34885
  Beta virt. eigenvalues --    0.35534   0.36516   0.36776   0.36964   0.37209
  Beta virt. eigenvalues --    0.37682   0.37935   0.38373   0.39038   0.39734
  Beta virt. eigenvalues --    0.40481   0.41466   0.41846   0.41922   0.43154
  Beta virt. eigenvalues --    0.43442   0.43900   0.44261   0.44492   0.45294
  Beta virt. eigenvalues --    0.46146   0.47123   0.47960   0.48796   0.50709
  Beta virt. eigenvalues --    0.51445   0.51969   0.54016   0.54317   0.55794
  Beta virt. eigenvalues --    0.58642   0.61585   0.62581   0.64009   0.65156
  Beta virt. eigenvalues --    0.65744   0.66186   0.67036   0.68162   0.69824
  Beta virt. eigenvalues --    0.70122   0.70580   0.71528   0.71951   0.72318
  Beta virt. eigenvalues --    0.72844   0.73633   0.74000   0.74199   0.74764
  Beta virt. eigenvalues --    0.75105   0.77133   0.77215   0.77671   0.78421
  Beta virt. eigenvalues --    0.78889   0.80432   0.82386   0.82665   0.84176
  Beta virt. eigenvalues --    0.84964   0.85491   0.86832   0.87540   0.88254
  Beta virt. eigenvalues --    0.89892   0.90222   0.90230   0.90929   0.91143
  Beta virt. eigenvalues --    0.91278   0.91478   0.92075   0.93608   0.93781
  Beta virt. eigenvalues --    0.94253   0.94571   0.94909   0.95398   0.95858
  Beta virt. eigenvalues --    0.95958   0.96454   0.97279   0.97339   0.98421
  Beta virt. eigenvalues --    0.98823   0.99704   1.00546   1.00617   1.02034
  Beta virt. eigenvalues --    1.02330   1.03088   1.03421   1.03857   1.04928
  Beta virt. eigenvalues --    1.04948   1.05952   1.06258   1.06977   1.08539
  Beta virt. eigenvalues --    1.09053   1.09443   1.10102   1.11261   1.12148
  Beta virt. eigenvalues --    1.14213   1.14689   1.16890   1.17842   1.18705
  Beta virt. eigenvalues --    1.19740   1.23821   1.24534   1.25126   1.25301
  Beta virt. eigenvalues --    1.26634   1.27406   1.28314   1.31710   1.32279
  Beta virt. eigenvalues --    1.34083   1.34551   1.35913   1.37302   1.37670
  Beta virt. eigenvalues --    1.39195   1.39798   1.41748   1.43662   1.44769
  Beta virt. eigenvalues --    1.45012   1.46590   1.47824   1.48616   1.48809
  Beta virt. eigenvalues --    1.49751   1.49899   1.51469   1.51966   1.52296
  Beta virt. eigenvalues --    1.53419   1.54627   1.55948   1.57002   1.57543
  Beta virt. eigenvalues --    1.58244   1.59770   1.61124   1.62902   1.63366
  Beta virt. eigenvalues --    1.63605   1.64949   1.65352   1.65510   1.65878
  Beta virt. eigenvalues --    1.68147   1.68868   1.69016   1.71483   1.72535
  Beta virt. eigenvalues --    1.73660   1.73728   1.74351   1.76852   1.77325
  Beta virt. eigenvalues --    1.79362   1.80062   1.81190   1.82304   1.84171
  Beta virt. eigenvalues --    1.84619   1.86927   1.87988   1.90993   1.92806
  Beta virt. eigenvalues --    1.94110   1.97943   1.98329   1.99403   2.01359
  Beta virt. eigenvalues --    2.03372   2.03694   2.05866   2.06603   2.07410
  Beta virt. eigenvalues --    2.09144   2.10989   2.12763   2.16814   2.19589
  Beta virt. eigenvalues --    2.21509   2.22433   2.23275   2.25871   2.26142
  Beta virt. eigenvalues --    2.31506   2.32063   2.33125   2.34659   2.34950
  Beta virt. eigenvalues --    2.36171   2.37431   2.39616   2.43098   2.44720
  Beta virt. eigenvalues --    2.44978   2.47300   2.49812   2.52490   2.53790
  Beta virt. eigenvalues --    2.54579   2.59554   2.65426   2.66622   2.69802
  Beta virt. eigenvalues --    2.70415   2.71851   2.72578   2.78498   2.79076
  Beta virt. eigenvalues --    2.82402   2.84257   2.84597   2.88350   2.89714
  Beta virt. eigenvalues --    2.91272   2.93501   2.94299   2.94585   2.95298
  Beta virt. eigenvalues --    2.97375   2.99885   3.00968   3.01132   3.02172
  Beta virt. eigenvalues --    3.02941   3.04040   3.04499   3.04948   3.07230
  Beta virt. eigenvalues --    3.08263   3.10308   3.11027   3.11363   3.12406
  Beta virt. eigenvalues --    3.13633   3.14851   3.16203   3.16303   3.17147
  Beta virt. eigenvalues --    3.17460   3.18802   3.19400   3.20389   3.21768
  Beta virt. eigenvalues --    3.22920   3.23846   3.24341   3.26175   3.26528
  Beta virt. eigenvalues --    3.27184   3.28164   3.28771   3.30097   3.30767
  Beta virt. eigenvalues --    3.32436   3.32804   3.34186   3.34805   3.35219
  Beta virt. eigenvalues --    3.36566   3.37864   3.38831   3.39794   3.41393
  Beta virt. eigenvalues --    3.43077   3.45780   3.47422   3.49280   3.50604
  Beta virt. eigenvalues --    3.51220   3.52992   3.53686   3.55372   3.58323
  Beta virt. eigenvalues --    3.58530   3.62305   3.62893   3.63871   3.65501
  Beta virt. eigenvalues --    3.66350   3.67151   3.69345   3.71339   3.72592
  Beta virt. eigenvalues --    3.72962   3.74121   3.75651   3.77671   3.78487
  Beta virt. eigenvalues --    3.79679   3.80758   3.82456   3.84914   3.85410
  Beta virt. eigenvalues --    3.86394   3.87598   3.89493   3.90292   3.92199
  Beta virt. eigenvalues --    3.95093   3.96179   3.98455   4.00500   4.01875
  Beta virt. eigenvalues --    4.02881   4.05462   4.06279   4.07230   4.10319
  Beta virt. eigenvalues --    4.10879   4.11689   4.12374   4.12809   4.12971
  Beta virt. eigenvalues --    4.13518   4.13848   4.14023   4.15518   4.16959
  Beta virt. eigenvalues --    4.17487   4.19359   4.20804   4.21329   4.22287
  Beta virt. eigenvalues --    4.22821   4.23464   4.25732   4.26934   4.27922
  Beta virt. eigenvalues --    4.28449   4.30413   4.30809   4.34212   4.34718
  Beta virt. eigenvalues --    4.35658   4.35900   4.37530   4.39201   4.39986
  Beta virt. eigenvalues --    4.41616   4.42009   4.44131   4.45634   4.46673
  Beta virt. eigenvalues --    4.47067   4.48440   4.50487   4.51904   4.52967
  Beta virt. eigenvalues --    4.54429   4.55019   4.56732   4.56903   4.57542
  Beta virt. eigenvalues --    4.58063   4.59551   4.60150   4.61372   4.61655
  Beta virt. eigenvalues --    4.61931   4.62498   4.63390   4.63890   4.64549
  Beta virt. eigenvalues --    4.65101   4.65900   4.67581   4.67675   4.67853
  Beta virt. eigenvalues --    4.69538   4.70481   4.71124   4.72041   4.73091
  Beta virt. eigenvalues --    4.73872   4.74514   4.75353   4.75724   4.76205
  Beta virt. eigenvalues --    4.76780   4.77408   4.79262   4.80816   4.81848
  Beta virt. eigenvalues --    4.83095   4.84307   4.85387   4.85494   4.87649
  Beta virt. eigenvalues --    4.90674   4.92082   4.92789   4.95525   4.97115
  Beta virt. eigenvalues --    4.97500   4.98731   4.99949   5.02034   5.05969
  Beta virt. eigenvalues --    5.07511   5.10323   5.11059   5.13372   5.14917
  Beta virt. eigenvalues --    5.17079   5.18949   5.20467   5.22752   5.24044
  Beta virt. eigenvalues --    5.25004   5.26021   5.28114   5.30222   5.32762
  Beta virt. eigenvalues --    5.37387   5.38446   5.41046   5.43081   5.45317
  Beta virt. eigenvalues --    5.48570   5.50808   5.55841   5.57430   5.61572
  Beta virt. eigenvalues --    5.64227   5.65338   5.71192   5.74709   5.80706
  Beta virt. eigenvalues --    5.84152   5.85957   5.87501   5.91635   5.91979
  Beta virt. eigenvalues --    5.95678   5.98378   6.04904   6.05907   6.13968
  Beta virt. eigenvalues --    6.22123   6.27603   6.41609   6.53006   6.61111
  Beta virt. eigenvalues --    6.84457   7.01162   8.97009   9.48176  11.10878
  Beta virt. eigenvalues --   11.33889  11.43150  11.43745  11.54417  11.55279
  Beta virt. eigenvalues --   11.74637  12.05085  12.05686  12.24510  12.40755
  Beta virt. eigenvalues --   12.43531  12.57325  12.68396  13.18294  13.61410
  Beta virt. eigenvalues --   17.37967  18.24698  26.56443  28.35758  38.51679
          Condensed to atoms (all electrons):
               1          2          3          4          5          6
     1  C   10.035081  -1.807372  -1.590904   0.436733  -1.455295   0.477000
     2  C   -1.807372  11.005087   0.436040  -2.953275   0.211346  -1.052624
     3  C   -1.590904   0.436040  10.724095  -1.736223  -2.134917   1.240355
     4  C    0.436733  -2.953275  -1.736223  11.929962  -0.810163  -1.158154
     5  C   -1.455295   0.211346  -2.134917  -0.810163  11.115142  -1.592129
     6  C    0.477000  -1.052624   1.240355  -1.158154  -1.592129   9.226269
     7  N    0.041485   0.003059   0.021612  -0.011675   0.344118  -0.082470
     8  C   -0.102313  -0.207876  -0.674793  -1.063573   1.178942  -0.046647
     9  C    0.063547  -0.114775  -0.137141  -0.096529   0.209200  -0.384087
    10  C    0.025408  -0.022819  -0.061761  -0.084440   0.151533  -0.003072
    11  C   -0.035224   0.070780   0.032907   0.390763  -0.235726  -0.033160
    12  C   -0.148413   0.122245  -0.340584   0.669929  -0.383362  -0.067365
    13  C   -0.104088   0.096460   0.532302  -0.162937  -1.236384  -0.252030
    14  N    0.029982  -0.026970  -0.188619   0.295230   0.235237  -0.051394
    15  H    0.034526   0.000147   0.184438   0.129041   0.035834  -0.021847
    16  H    0.001960  -0.000799  -0.038379   0.053958   0.129884   0.224094
    17  H   -0.000041   0.000118  -0.000301   0.001459  -0.027571   0.003659
    18  H    0.000003   0.000000  -0.000042   0.000391   0.000479   0.000030
    19  H    0.000005  -0.000024  -0.000233  -0.000101   0.001057   0.000018
    20  H    0.000298   0.001021   0.005301  -0.035806  -0.006278  -0.001568
    21  N    0.289815  -0.279355  -0.006465   0.059811   0.049106   0.035146
    22  H   -0.071696   0.059600  -0.008022   0.002392   0.046362  -0.055455
    23  H    0.082845  -0.170161  -0.022594  -0.014410   0.009180   0.085350
    24  N   -0.261913   0.245708   0.126462   0.095426   0.035404  -0.043628
    25  H   -0.169783   0.053222   0.120425   0.006839  -0.018956  -0.025537
    26  H    0.069021  -0.064352  -0.078534   0.047483   0.003694  -0.003021
    27  Mn   0.024311  -0.113681  -0.160170   0.044983   0.114506  -0.010547
               7          8          9         10         11         12
     1  C    0.041485  -0.102313   0.063547   0.025408  -0.035224  -0.148413
     2  C    0.003059  -0.207876  -0.114775  -0.022819   0.070780   0.122245
     3  C    0.021612  -0.674793  -0.137141  -0.061761   0.032907  -0.340584
     4  C   -0.011675  -1.063573  -0.096529  -0.084440   0.390763   0.669929
     5  C    0.344118   1.178942   0.209200   0.151533  -0.235726  -0.383362
     6  C   -0.082470  -0.046647  -0.384087  -0.003072  -0.033160  -0.067365
     7  N    6.577601   0.444641  -0.115945  -0.022045   0.013793  -0.002840
     8  C    0.444641   8.813045  -1.225258  -0.065231  -0.543489  -0.817777
     9  C   -0.115945  -1.225258   7.063095   0.590584  -0.145040   0.614453
    10  C   -0.022045  -0.065231   0.590584   5.545501   0.557288  -0.269724
    11  C    0.013793  -0.543489  -0.145040   0.557288   6.563578   0.104751
    12  C   -0.002840  -0.817777   0.614453  -0.269724   0.104751   7.682918
    13  C    0.033198  -0.038184  -0.300301  -0.492634  -0.787801  -1.113751
    14  N   -0.041830   0.208573  -0.063601   0.051468  -0.039671  -0.203960
    15  H    0.000208  -0.002725  -0.001582   0.000092   0.000839   0.005833
    16  H   -0.012754  -0.022405   0.002206  -0.000643   0.000134  -0.000643
    17  H   -0.013608   0.098158   0.265619  -0.015148  -0.009106  -0.024074
    18  H    0.000438   0.016927  -0.010866   0.287239   0.022925   0.022181
    19  H   -0.000088  -0.010734   0.007764   0.018985   0.305547  -0.004366
    20  H    0.000363   0.024579   0.002171  -0.009507  -0.063794   0.323742
    21  N    0.000051   0.008038  -0.001269  -0.000191   0.000144   0.001284
    22  H   -0.000199   0.000522   0.000035  -0.000000  -0.000000   0.000031
    23  H    0.000049   0.000428  -0.000056  -0.000002   0.000002   0.000020
    24  N    0.000408   0.001261   0.001101   0.000029  -0.000401  -0.002535
    25  H    0.000000  -0.000207   0.000005   0.000001  -0.000004  -0.000067
    26  H    0.000017   0.000316   0.000036  -0.000001   0.000006   0.000115
    27  Mn  -0.011652   0.125863   0.009710  -0.002900  -0.104648  -0.101557
              13         14         15         16         17         18
     1  C   -0.104088   0.029982   0.034526   0.001960  -0.000041   0.000003
     2  C    0.096460  -0.026970   0.000147  -0.000799   0.000118   0.000000
     3  C    0.532302  -0.188619   0.184438  -0.038379  -0.000301  -0.000042
     4  C   -0.162937   0.295230   0.129041   0.053958   0.001459   0.000391
     5  C   -1.236384   0.235237   0.035834   0.129884  -0.027571   0.000479
     6  C   -0.252030  -0.051394  -0.021847   0.224094   0.003659   0.000030
     7  N    0.033198  -0.041830   0.000208  -0.012754  -0.013608   0.000438
     8  C   -0.038184   0.208573  -0.002725  -0.022405   0.098158   0.016927
     9  C   -0.300301  -0.063601  -0.001582   0.002206   0.265619  -0.010866
    10  C   -0.492634   0.051468   0.000092  -0.000643  -0.015148   0.287239
    11  C   -0.787801  -0.039671   0.000839   0.000134  -0.009106   0.022925
    12  C   -1.113751  -0.203960   0.005833  -0.000643  -0.024074   0.022181
    13  C    9.377686   0.326373  -0.027245   0.005869   0.046606  -0.011496
    14  N    0.326373   6.250902  -0.019824   0.001532   0.001668  -0.000242
    15  H   -0.027245  -0.019824   0.490835   0.000016   0.000000  -0.000000
    16  H    0.005869   0.001532   0.000016   0.470364   0.000000  -0.000000
    17  H    0.046606   0.001668   0.000000   0.000000   0.476804  -0.003246
    18  H   -0.011496  -0.000242  -0.000000  -0.000000  -0.003246   0.471550
    19  H    0.009197   0.000994  -0.000000  -0.000000  -0.000143  -0.002526
    20  H    0.069548  -0.020120   0.000001   0.000000   0.000018  -0.000164
    21  N    0.003044  -0.000483  -0.000395  -0.013947  -0.000000  -0.000000
    22  H    0.000324   0.000030   0.000002   0.002842   0.000000  -0.000000
    23  H   -0.000229  -0.000004  -0.000004  -0.000086   0.000000   0.000000
    24  N    0.007585   0.001059  -0.017415  -0.000049   0.000000  -0.000000
    25  H    0.000054  -0.000060  -0.000167  -0.000006   0.000000  -0.000000
    26  H    0.000575  -0.000088   0.003729   0.000002  -0.000000   0.000000
    27  Mn   0.046574   0.175095   0.022029   0.000124   0.000120  -0.000117
              19         20         21         22         23         24
     1  C    0.000005   0.000298   0.289815  -0.071696   0.082845  -0.261913
     2  C   -0.000024   0.001021  -0.279355   0.059600  -0.170161   0.245708
     3  C   -0.000233   0.005301  -0.006465  -0.008022  -0.022594   0.126462
     4  C   -0.000101  -0.035806   0.059811   0.002392  -0.014410   0.095426
     5  C    0.001057  -0.006278   0.049106   0.046362   0.009180   0.035404
     6  C    0.000018  -0.001568   0.035146  -0.055455   0.085350  -0.043628
     7  N   -0.000088   0.000363   0.000051  -0.000199   0.000049   0.000408
     8  C   -0.010734   0.024579   0.008038   0.000522   0.000428   0.001261
     9  C    0.007764   0.002171  -0.001269   0.000035  -0.000056   0.001101
    10  C    0.018985  -0.009507  -0.000191  -0.000000  -0.000002   0.000029
    11  C    0.305547  -0.063794   0.000144  -0.000000   0.000002  -0.000401
    12  C   -0.004366   0.323742   0.001284   0.000031   0.000020  -0.002535
    13  C    0.009197   0.069548   0.003044   0.000324  -0.000229   0.007585
    14  N    0.000994  -0.020120  -0.000483   0.000030  -0.000004   0.001059
    15  H   -0.000000   0.000001  -0.000395   0.000002  -0.000004  -0.017415
    16  H   -0.000000   0.000000  -0.013947   0.002842  -0.000086  -0.000049
    17  H   -0.000143   0.000018  -0.000000   0.000000   0.000000   0.000000
    18  H   -0.002526  -0.000164  -0.000000  -0.000000   0.000000  -0.000000
    19  H    0.470477  -0.004100  -0.000000   0.000000  -0.000000   0.000000
    20  H   -0.004100   0.497685  -0.000000   0.000000   0.000000   0.000000
    21  N   -0.000000  -0.000000   6.829141   0.351081   0.332217   0.013245
    22  H    0.000000   0.000000   0.351081   0.343880  -0.021360  -0.001146
    23  H   -0.000000   0.000000   0.332217  -0.021360   0.357773   0.020448
    24  N    0.000000   0.000000   0.013245  -0.001146   0.020448   6.746009
    25  H    0.000000   0.000000   0.023464  -0.000015  -0.001655   0.337750
    26  H   -0.000000   0.000000  -0.001186  -0.000003   0.000025   0.350799
    27  Mn  -0.000207   0.029513  -0.000380   0.000005  -0.000016  -0.000966
              25         26         27
     1  C   -0.169783   0.069021   0.024311
     2  C    0.053222  -0.064352  -0.113681
     3  C    0.120425  -0.078534  -0.160170
     4  C    0.006839   0.047483   0.044983
     5  C   -0.018956   0.003694   0.114506
     6  C   -0.025537  -0.003021  -0.010547
     7  N    0.000000   0.000017  -0.011652
     8  C   -0.000207   0.000316   0.125863
     9  C    0.000005   0.000036   0.009710
    10  C    0.000001  -0.000001  -0.002900
    11  C   -0.000004   0.000006  -0.104648
    12  C   -0.000067   0.000115  -0.101557
    13  C    0.000054   0.000575   0.046574
    14  N   -0.000060  -0.000088   0.175095
    15  H   -0.000167   0.003729   0.022029
    16  H   -0.000006   0.000002   0.000124
    17  H    0.000000  -0.000000   0.000120
    18  H   -0.000000   0.000000  -0.000117
    19  H    0.000000  -0.000000  -0.000207
    20  H    0.000000   0.000000   0.029513
    21  N    0.023464  -0.001186  -0.000380
    22  H   -0.000015  -0.000003   0.000005
    23  H   -0.001655   0.000025  -0.000016
    24  N    0.337750   0.350799  -0.000966
    25  H    0.344652  -0.020339   0.000075
    26  H   -0.020339   0.336469  -0.000023
    27  Mn   0.000075  -0.000023  23.374393
          Atomic-Atomic Spin Densities.
               1          2          3          4          5          6
     1  C    0.267239  -0.305040   0.014011  -0.129128   0.192580  -0.063625
     2  C   -0.305040   0.878074  -0.143631  -0.130731  -0.263378  -0.019358
     3  C    0.014011  -0.143631   0.385151   0.095209  -0.317515   0.010463
     4  C   -0.129128  -0.130731   0.095209   0.720390  -0.544572   0.134538
     5  C    0.192580  -0.263378  -0.317515  -0.544572   1.097628  -0.237623
     6  C   -0.063625  -0.019358   0.010463   0.134538  -0.237623   0.273323
     7  N   -0.006479   0.003413   0.012305   0.046305  -0.075238   0.010832
     8  C    0.098271  -0.136795  -0.208026  -0.450874   0.702502  -0.040321
     9  C    0.013068  -0.002555   0.004230  -0.097929  -0.005854  -0.039265
    10  C    0.006369  -0.006823  -0.011668  -0.049590   0.052224   0.006748
    11  C   -0.011431   0.016958   0.055420   0.166496  -0.118848   0.008140
    12  C   -0.025477   0.052330   0.110635   0.069759  -0.199345   0.016975
    13  C   -0.074585   0.118130   0.036536   0.220115  -0.369025  -0.053076
    14  N    0.012185  -0.013850  -0.009614  -0.052013   0.045811  -0.004293
    15  H   -0.004517   0.005134   0.009226  -0.004388  -0.006001   0.001088
    16  H   -0.000376  -0.001051   0.000397   0.001750  -0.002382   0.001151
    17  H   -0.000023  -0.000013   0.000031   0.000555  -0.000873  -0.000024
    18  H    0.000002  -0.000002  -0.000010  -0.000095   0.000190   0.000028
    19  H    0.000001  -0.000001  -0.000013  -0.000120   0.000087   0.000001
    20  H   -0.000036   0.000190   0.000715   0.001762  -0.002840  -0.000124
    21  N   -0.005294   0.009702  -0.003510  -0.000669   0.002325  -0.002468
    22  H   -0.001054   0.000817  -0.000116   0.000046   0.000057   0.000229
[...]
 0426,0.00002160,-0.00002914,0.00003755,-0.00001325,0.00006672,-0.00002
 434,-0.00001207,0.00011103,-0.00001653,-0.00002603,-0.00057448,-0.0000
 5029,0.00004841,-0.00016374,0.00001111,-0.00000612,0.00005556,0.000068
 65,0.00006172,0.00034647,0.00041291,-0.00010654,0.00458426,0.00002268,
 0.00003800,-0.00078354,0.00077821,-0.00036117,0.00808548,-0.00016340,-
 0.00219541,0.00519536,0.00065681,-0.00690994,-0.03670122,0.00021336,0.
 00113834,0.00330407,-0.00019726,0.00000447,-0.00146599,0.00000424,0.00
 000930,-0.00003667,0.00000027,-0.00000420,0.00002071,-0.00005892,0.000
 02004,-0.00085109,-0.00001093,-0.00010623,0.00004306,-0.00034270,0.000
 18038,-0.00544532,-0.00106823,0.00898267,0.02637960,-0.26974081,-0.073
 30716,0.01205930,-0.00913876,-0.01829725,0.00132145,0.00721210,0.00266
 139,0.00014641,-0.01071517,-0.00497091,0.00069913,0.01701971,0.0157087
 8,-0.00156610,-0.06934724,-0.02071602,0.00120547,-0.00571003,0.0007024
 0,-0.00001687,-0.00066446,-0.00213517,0.00048544,0.00126865,-0.0012987
 9,-0.00006645,-0.00080532,-0.00206220,-0.00005042,-0.00218961,0.000496
 65,0.00013018,0.00114759,0.00099221,-0.00005226,-0.00514519,0.00334475
 ,0.00029473,0.00784835,-0.00056598,-0.00046204,0.00040818,0.00003454,-
 0.00027793,0.00241999,-0.00145686,-0.00016273,0.00004667,0.00016747,0.
 00001549,-0.00027688,0.00007358,0.00000854,-0.00013978,-0.00000778,0.0
 0001166,-0.00007320,-0.00050943,-0.00000792,0.64289884,-0.08454599,-0.
 16444086,0.01823359,-0.03998433,-0.03098187,0.00219088,0.00536758,-0.0
 0589793,-0.00076253,-0.00267332,-0.00249013,0.00036257,0.00383534,0.00
 163535,-0.00228700,0.00958345,0.01791216,-0.00217076,0.00327198,0.0006
 2305,-0.00041865,-0.00204658,-0.00216555,0.00051404,0.00148010,-0.0005
 7851,-0.00005178,-0.00082046,-0.00144011,-0.00003491,-0.00111478,0.000
 92674,0.00009432,0.00107136,0.00049710,-0.00007731,-0.00284839,0.00222
 880,0.00016305,0.00336630,-0.00026956,-0.00020498,-0.00197026,-0.00109
 172,-0.00004806,0.00087608,0.00123440,0.00064362,-0.00000039,0.0000843
 6,0.00001406,-0.00010009,0.00002944,-0.00000110,-0.00007239,0.00000662
 ,0.00000872,-0.00000012,-0.00021385,-0.00000450,-0.02950009,0.77008197
 ,-0.03494926,-0.00142998,-0.04993733,0.00220650,0.00185239,0.00524480,
 -0.00262994,-0.00096961,0.00220258,0.00406107,0.00155462,-0.00092510,-
 0.00557390,-0.00386561,0.00957934,0.01049212,-0.00249385,0.01203076,0.
 00090753,-0.00059361,0.00066404,0.00027635,0.00097920,-0.00146872,-0.0
 0060991,0.00038912,-0.00006667,0.00031423,0.00084887,0.00011049,0.0008
 1563,-0.00030235,-0.00008870,-0.00059001,-0.00034140,0.00015893,0.0021
 3956,-0.00134895,-0.00008801,-0.00334986,0.00000207,-0.00008769,-0.000
 22770,-0.00005358,-0.00003888,0.00003197,0.00059452,-0.00500613,-0.000
 01640,-0.00004742,-0.00002726,0.00008368,-0.00002592,0.00001321,0.0000
 4079,-0.00000065,-0.00001342,0.00002478,0.00015846,-0.00000204,0.20188
 337,-0.03594745,0.18405804,0.00052211,-0.03892267,-0.00532190,-0.00672
 063,-0.00124906,0.00004276,0.00098429,-0.00132682,-0.00011757,0.000100
 82,0.00002765,-0.00003489,-0.00028076,0.00040699,0.00022031,0.00180216
 ,-0.00146819,0.00011520,0.00035064,-0.00000386,-0.00000246,-0.00008485
 ,-0.00008417,-0.00005747,0.00006450,0.00000341,-0.00001267,-0.00000458
 ,-0.00004276,0.00000508,-0.00001387,0.00001670,0.00000077,0.00001613,0
 .00000515,0.00000416,-0.00008086,0.00007609,0.00001377,0.00013201,0.00
 023416,-0.00000105,-0.00039028,-0.00023591,0.00006076,-0.00126997,0.00
 141149,0.00022708,-0.00000198,-0.00000139,-0.00000173,0.00000263,0.000
 00059,0.00000091,0.00000171,0.00000103,-0.00000113,0.00000001,0.000002
 78,-0.00000015,-0.06135752,0.02449043,-0.01355634,0.06378981,-0.001207
 24,-0.01500375,-0.00426234,-0.00127228,0.00145513,-0.00025654,-0.00016
 039,-0.00056498,0.00001396,0.00073818,0.00042420,-0.00007529,-0.000970
 10,-0.00100681,0.00075919,0.00361707,0.00263176,0.00069827,0.00049211,
 -0.00006061,0.00000964,-0.00001640,0.00008822,-0.00010862,-0.00005747,
 0.00007257,-0.00000295,0.00003786,0.00011663,0.00000949,0.00013395,-0.
 00002289,-0.00000998,-0.00007901,-0.00005788,0.00001502,0.00032717,-0.
 00019221,-0.00002547,-0.00052148,0.00002206,0.00000524,-0.00018378,-0.
 00002586,0.00002710,-0.00016111,0.00022317,-0.00065083,-0.00000329,-0.
 00000883,-0.00000233,0.00001622,-0.00000433,0.00000045,0.00000731,0.00
 000043,-0.00000132,0.00000499,0.00002893,0.,0.01272769,-0.44644406,-0.
 05067618,-0.01085883,0.46846284,0.00770860,0.00682089,-0.00262900,0.00
 039576,-0.00122246,0.00308442,0.00031514,-0.00015122,0.00060965,-0.000
 39924,-0.00034812,0.00014216,0.00037891,0.00081549,-0.00105224,-0.0020
 7190,0.00027111,-0.00084586,-0.00000505,0.00004783,-0.00007943,-0.0002
 3494,-0.00023617,0.00024686,0.00016809,-0.00009643,-0.00000106,-0.0001
 1687,-0.00018783,-0.00001817,-0.00016481,0.00012660,0.00001702,0.00016
 263,0.00007066,-0.00003974,-0.00041844,0.00029813,0.00002877,0.0004992
 2,-0.00012341,-0.00003772,-0.00008035,-0.00002519,-0.00027436,0.000001
 32,-0.00020282,0.00017995,0.00000193,0.00001312,0.00000902,-0.00001746
 ,0.00000354,-0.00000171,-0.00001118,0.00000026,0.00000432,-0.00000073,
 -0.00003367,0.00000062,-0.01672842,-0.08728093,-0.02574024,0.01069089,
 0.06002371,0.02566811,-0.03163125,0.01277769,-0.01509378,0.00007785,0.
 00217445,0.00054505,-0.00061825,0.00010188,0.00033893,0.00086012,0.000
 71827,-0.00009758,-0.00214439,-0.00046987,0.00105854,0.00098344,-0.004
 32772,-0.00101950,0.00005033,-0.00033405,0.00016099,-0.00001382,0.0002
 4182,-0.00017518,-0.00015660,0.00008308,0.00000101,0.00007835,0.000220
 41,0.00000984,0.00022754,-0.00007943,-0.00001562,-0.00016826,-0.000103
 93,0.00001033,0.00057169,-0.00031086,-0.00003882,-0.00080212,-0.000039
 29,0.00004153,0.00006705,0.00003734,-0.00006321,0.00014338,0.00003329,
 -0.00049035,-0.00000211,-0.00001294,-0.00000210,0.00002046,-0.00000836
 ,0.00000160,0.00001202,-0.00000039,-0.00000037,0.00000428,0.00004312,0
 .00000065,-0.24817218,0.11856834,-0.15990553,0.00164225,-0.00232292,0.
 00065666,0.27735536,-0.00798353,0.01233277,-0.01193176,-0.00389293,-0.
 00010436,-0.00066083,0.00186381,0.00022870,-0.00001704,-0.00154162,0.0
 0006523,0.00003674,0.00227271,0.00148028,0.00082749,-0.00507273,-0.001
 54319,0.00076579,-0.00144844,0.00001929,0.00007882,0.00050706,0.000116
 36,-0.00014842,-0.00015521,-0.00005036,-0.00000355,0.00011631,0.000002
 32,0.00000398,-0.00009102,-0.00020489,-0.00000233,-0.00012775,0.000048
 51,0.00002474,-0.00017584,0.00002553,0.00001805,0.00067952,0.00022821,
 -0.00005422,0.00006683,0.00000226,-0.00003531,-0.00018307,0.00010644,-
 0.00006318,0.00000683,0.00000404,-0.00000327,-0.00001968,0.00000801,0.
 00000174,-0.00000309,-0.00000222,-0.00000230,-0.00001620,-0.00003133,0
 .00000019,0.11404287,-0.13969940,0.09191159,0.02687896,-0.01053813,0.0
 2077940,-0.12763622,0.14090712,0.01805776,-0.00058189,-0.00345823,-0.0
 0321812,-0.00091946,0.00031397,0.00191549,0.00038558,-0.00027601,-0.00
 214788,-0.00036341,0.00001774,0.00304636,0.00111022,0.00146689,-0.0021
 7434,0.00141129,0.00109744,-0.00043266,0.00022228,0.00014094,0.0000318
 4,-0.00032010,-0.00029407,0.00017496,-0.00012594,-0.00003600,-0.000048
 78,-0.00029517,0.00001403,-0.00029491,0.00002736,0.00001035,0.00014913
 ,0.00011896,0.00002425,-0.00078315,0.00048349,0.00004704,0.00145389,0.
 00016722,-0.00006421,0.00011605,0.00002403,0.00002936,-0.00011146,0.00
 000377,-0.00045640,0.00000700,0.00001411,-0.00000639,-0.00003023,0.000
 01126,0.00000632,-0.00001179,0.00000005,-0.00000148,-0.00001509,-0.000
 05692,-0.00000183,-0.19900733,0.10615885,-0.12918927,0.00807596,-0.005
 56865,0.00073002,0.17386900,-0.09897723,0.13186804,-0.00895846,0.02401
 559,0.00179501,-0.28101122,0.08957701,0.01958881,-0.08366232,0.0189950
 1,0.00876167,0.02372598,-0.02163059,-0.00114864,-0.01801831,0.01035136
 ,0.00085817,0.01139995,-0.00408925,-0.00060618,0.01981499,-0.00039489,
 -0.00099604,-0.01375737,-0.00751056,0.00055401,0.00618601,-0.00226673,
 -0.00038938,-0.00489594,-0.00442706,0.00014072,-0.00289936,0.00576881,
 0.00033095,0.00494256,0.00157471,-0.00027017,-0.00604529,0.00623333,0.
 00023273,-0.00389344,-0.00790975,0.00003887,0.00114120,0.00134691,-0.0
 0030264,0.00068023,-0.00018060,0.00021139,-0.00010420,0.00041265,0.000
 01228,-0.00025567,0.00000722,0.00001299,-0.00035503,0.00001104,0.00002
 934,0.00025493,-0.00064506,-0.00003316,0.00223751,-0.00467574,-0.00116
 335,0.00018538,-0.00028385,-0.00041702,0.00073889,0.00176071,0.0008588
 9,0.69215377,0.04366290,-0.03554808,-0.00323972,0.08835537,-0.18364019
 ,-0.00227981,-0.00339698,0.01962835,-0.00155519,-0.00818510,0.00390791
 ,-0.00098174,0.00745779,-0.00505234,-0.00017445,-0.00955571,-0.0057703
 3,0.00007140,-0.00904542,0.00071501,0.00047179,0.00680759,0.00412907,-
 0.00030004,-0.00320623,0.00116453,0.00018058,0.00233054,0.00255987,-0.
 00003947,0.00166235,-0.00297235,-0.00020120,-0.00292246,-0.00061552,0.
 00019941,0.00422597,-0.00444688,-0.00006170,-0.00383293,0.00392734,0.0
 0020262,-0.00085833,0.00158861,0.00085443,0.00158566,-0.00069295,-0.00
 020417,0.00002648,-0.00018051,-0.00000371,0.00013494,-0.00000184,-0.00
 000463,0.00013956,-0.00000049,-0.00001887,-0.00007199,0.00030449,0.000
 01746,0.00389538,-0.00140999,-0.00046560,0.00145830,0.00042746,-0.0003
 2535,-0.00008153,0.00011594,0.00070904,0.04733140,0.81765659,0.0005341
 7,-0.00009173,0.00740412,0.06133531,-0.01940452,-0.05250232,-0.0026725
 4,-0.00468124,0.01306587,0.00508207,-0.00256412,0.00664378,-0.00379726
 ,0.00186733,-0.00032364,0.00241085,-0.00117505,0.00204321,0.00417230,-
 0.00013598,-0.00037868,-0.00291854,-0.00156853,0.00025702,0.00136515,-
 0.00044996,-0.00003228,-0.00099773,-0.00099764,-0.00001787,-0.00061424
 ,0.00124195,0.00014131,0.00114296,0.00024416,-0.00023700,-0.00145362,0
 .00155250,-0.00079356,0.00032084,-0.00192561,0.00023733,-0.00086981,0.
 00021473,-0.00397033,0.00022731,-0.00003274,-0.00034567,-0.00001514,0.
 00007056,-0.00000060,-0.00004591,-0.00000194,-0.00000251,-0.00005495,-
 0.00000035,0.00003966,0.00004116,-0.00010960,-0.00001530,0.00062167,-0
 .00012521,-0.00183455,0.00034827,-0.00005848,0.00012818,0.00018154,0.0
 0063238,0.00008362,-0.22197037,0.01695420,0.14488025,-0.00019664,-0.00
 252797,-0.00076687,-0.03078717,-0.01325218,0.01170250,0.00225554,0.004
 16584,0.00125264,-0.00283661,0.00081934,0.00018394,0.00145470,-0.00118
 285,-0.00013820,-0.00099530,-0.00012541,-0.00018921,-0.00179372,0.0001
 0647,0.00007526,0.00130919,0.00067922,-0.00004067,-0.00060171,0.000223
 63,0.00005260,0.00046252,0.00043406,-0.00001548,0.00027641,-0.00054918
 ,-0.00002520,-0.00049463,-0.00010691,0.00002561,0.00053053,-0.00065803
 ,-0.00004948,-0.00006020,0.00109780,-0.00006230,0.00019502,0.00007495,
 0.00006640,0.00007223,-0.00002522,0.00010501,0.00000657,-0.00003539,-0
 .00000113,0.00002363,-0.00000002,-0.00000341,0.00002789,0.00000107,-0.
 00000261,-0.00001926,0.00005562,0.00000085,0.00068848,-0.00047331,-0.0
 0043020,0.00017302,-0.00001471,-0.00025770,0.00077101,-0.00048508,-0.0
 0011468,-0.27775271,-0.14596305,0.14248719,0.30409683,0.00380389,-0.00
 019376,-0.00113122,0.01031098,0.01492812,-0.00849262,0.00599887,-0.002
 19760,0.00024783,-0.00209258,0.00199493,0.00079259,0.00168264,-0.00024
 640,-0.00014085,-0.00193730,0.00011042,0.00001388,-0.00150432,0.000050
 44,0.00003708,0.00086259,0.00037623,0.00000920,-0.00033179,0.00011024,
 0.00002568,0.00030283,0.00017168,-0.00001023,0.00008791,-0.00033715,-0
 .00001042,-0.00021550,-0.00009078,-0.00000115,0.00005892,-0.00015872,-
 0.00009161,0.00112498,0.00049347,-0.00008427,0.00026760,0.00017529,-0.
 00011137,-0.00001203,-0.00002629,-0.00001177,0.00001169,-0.00002609,-0
 .00000087,0.00000847,0.00000145,-0.00000255,0.00002367,-0.00000063,0.0
 0000056,-0.00002444,0.00003059,0.00000028,-0.00171678,0.00067643,0.000
 67596,-0.00081046,-0.00001351,0.00087824,0.00087409,-0.00347554,-0.003
 84905,-0.14556409,-0.16561302,0.07991140,0.15462613,0.16308309,0.00259
 863,-0.00125768,-0.00103430,-0.01380894,0.00282281,-0.00523220,0.00322
 515,0.00070627,0.00200957,-0.00271168,0.00152394,0.00273404,0.00233942
 ,-0.00089817,-0.00031067,-0.00186635,0.00050764,-0.00013665,-0.0023642
 9,0.00011991,0.00015605,0.00156796,0.00084367,-0.00004537,-0.00069284,
 0.00022690,0.00008453,0.00053046,0.00049540,-0.00002950,0.00030113,-0.
 00066794,0.00000108,-0.00060325,-0.00012892,-0.00006182,0.00065756,-0.
 00076751,-0.00045972,-0.00000954,0.00093387,0.00012300,0.00007907,0.00
 011597,-0.00087197,-0.00009398,-0.00000023,0.00013466,0.00001016,-0.00
 003954,-0.00000377,0.00002159,0.00000137,-0.00000628,0.00003297,-0.000
 00123,0.00001582,-0.00002551,0.00005708,-0.00000541,-0.00060571,0.0008
 3348,0.00034156,-0.00069508,0.00017973,-0.00030072,-0.00010386,-0.0036
 7850,-0.00176964,0.17390980,0.08868109,-0.08556017,-0.15203562,-0.0848
 8784,0.08958494,-0.00627384,0.00065152,0.00117879,0.00174757,0.0369045
 4,0.00628234,0.00170371,0.00171247,-0.00065550,-0.00035731,-0.00046810
 ,-0.00031265,0.00019043,0.00005229,0.00006392,0.00086293,0.00136865,0.
 00004903,0.00006066,-0.00021543,-0.00000590,-0.00007814,-0.00006022,-0
 .00001814,0.00001898,-0.00000119,-0.00000096,-0.00000727,-0.00002740,-
 0.00000302,-0.00000718,0.00004048,-0.00000089,0.00007499,-0.00001801,0
 .00001049,-0.00011619,0.00012358,0.00007810,0.00035148,0.00000346,-0.0
 0002860,-0.00175387,-0.00099192,-0.00009995,-0.00035274,0.00018255,-0.
 00010866,0.00000182,-0.00000192,0.00000068,0.00000222,-0.00000121,0.00
 000105,0.00000346,-0.00000015,-0.00000331,-0.00000504,0.00000654,0.000
 00195,0.00032880,-0.00148502,-0.00033528,0.00039060,-0.00001573,-0.000
 08291,0.00012140,0.00069485,0.00069014,-0.06301740,-0.02161978,0.01500
 649,0.00325027,-0.02572015,-0.00958018,0.06306766,0.00099895,0.0022053
 6,-0.00061891,0.00299306,-0.01427800,-0.00405362,-0.00473084,0.0021709
 5,0.00146883,0.00187465,-0.00167544,0.00059234,-0.00140941,0.00095309,
 0.00000890,0.00060516,-0.00068479,-0.00007950,0.00156119,-0.00003672,-
 0.00007802,-0.00109485,-0.00057247,0.00003091,0.00050352,-0.00017956,-
 0.00001633,-0.00038831,-0.00035195,0.00000733,-0.00022804,0.00045210,0
 .00003182,0.00038565,0.00011897,-0.00002870,-0.00045715,0.00045746,-0.
 00007012,-0.00039254,-0.00066559,-0.00000108,0.00023788,-0.00005247,-0
 .00080828,0.00017559,-0.00000007,0.00002814,-0.00000711,0.00003108,0.0
 0000093,-0.00001947,0.00000030,-0.00000045,-0.00002669,0.00000080,0.00
 000481,0.00001974,-0.00004866,-0.00000415,0.00025702,0.00025467,-0.000
 04690,0.00001112,0.00005374,-0.00005477,-0.00001705,-0.00001341,0.0001
 5715,-0.01350635,-0.44816425,-0.07025535,0.00356109,-0.00939468,-0.005
 21372,0.00902949,0.46898887,0.00100945,-0.00127692,0.00415682,-0.00830
 154,0.00289017,-0.00252474,0.00212039,0.00048918,-0.00168503,-0.001020
 31,0.00108612,-0.00098819,0.00095391,-0.00057817,0.00020037,-0.0008123
 0,-0.00012392,0.00074015,-0.00116524,0.00004736,0.00002024,0.00085330,
 0.00048262,-0.00002109,-0.00040403,0.00014493,-0.00002303,0.00029742,0
 .00030409,0.00000678,0.00019752,-0.00035842,-0.00004708,-0.00032879,-0
 .00009077,0.00005158,0.00047235,-0.00045902,0.00017995,-0.00004604,0.0
 0047155,-0.00001237,0.00013261,-0.00021062,0.00009792,0.00001783,0.000
 01508,-0.00047583,0.00000476,-0.00002354,0.00000182,0.00001689,-0.0000
 0055,0.00000416,0.00001924,-0.00000050,-0.00000823,-0.00001199,0.00003
 873,0.00000913,0.00006382,0.00017464,0.00011433,-0.00000058,-0.0000401
 5,0.00016472,0.00013157,0.00049775,-0.00030465,0.01977593,-0.09840699,
 -0.02896896,-0.00180352,0.01623982,0.00064020,-0.01212863,0.07898312,0
 .02868062,0.00048675,-0.00029726,-0.00004874,-0.00228053,0.00170793,0.
 00019154,-0.00433142,-0.00681387,-0.00051352,0.00066746,-0.00688351,-0
 .00015037,-0.00074357,0.00019273,0.00012530,-0.00020715,0.00022449,-0.
 00003704,-0.00018501,0.00017985,-0.00001078,-0.00121524,0.00045864,0.0
 0012631,0.00035567,-0.00013677,-0.00002344,0.00023197,-0.00033276,-0.0
 0001652,-0.00111573,-0.00163939,-0.00000129,-0.00224534,0.00811849,0.0
 0019098,0.00290515,0.00548302,0.00006338,-0.00803606,-0.00258662,0.000
 06385,-0.02284367,-0.00776085,0.00158010,-0.00003309,0.00002894,0.0000
 0406,-0.00009803,0.00002556,0.00000623,-0.00002165,-0.00026281,-0.0000
 0436,0.00004655,0.00002188,-0.00000335,-0.00134601,0.01039828,-0.00023
 967,-0.00004876,0.00040030,0.00006010,0.00004722,0.00002601,0.00002786
 ,-0.00001644,-0.00005806,-0.00005604,0.00116531,-0.00033472,0.00013284
 ,-0.00005587,-0.00011585,-0.00007707,-0.00020798,0.00006373,-0.0000440
 1,0.03912545,-0.00125735,-0.00187308,0.00005095,-0.00685795,0.00033958
 ,0.00022296,0.00487841,-0.00225316,-0.00058729,-0.01435420,-0.00335417
 ,0.00068235,0.00134816,-0.00162628,-0.00017559,-0.00027998,0.00053509,
 0.00010030,-0.00277989,0.00173458,0.00022520,0.00187400,0.00192916,-0.
 00012175,-0.00111125,0.00049951,0.00008511,0.00047504,0.00133314,0.000
 00818,0.00078361,-0.00166684,-0.00007521,-0.00962362,0.00261918,0.0002
 1796,0.01124879,-0.00876372,-0.00096192,0.00251863,-0.03565566,-0.0021
 6813,-0.00878251,-0.00293009,0.00133490,0.00023183,0.00028845,0.000001
 51,-0.00015159,0.00023915,0.00001392,-0.00014133,0.00022830,0.00001143
 ,-0.00028482,0.00003903,0.00001364,0.01597500,-0.01637892,-0.00077326,
 0.00143970,0.00093247,-0.00035775,-0.00002074,-0.00006329,0.00013940,-
 0.00012922,-0.00002817,0.00005315,0.00569879,-0.00201643,0.00088883,-0
 .00044589,-0.00042820,-0.00050784,-0.00014420,0.00043068,-0.00029561,-
 0.00010740,0.06588972,-0.00007489,-0.00006794,0.00001081,-0.00018894,-
 0.00005540,-0.00020489,0.00003506,0.00036255,-0.00003282,-0.00047350,0
 .00015322,0.00120653,0.00016212,-0.00010385,0.00137313,0.00000477,0.00
 002503,-0.00008135,-0.00013070,0.00007169,-0.00069075,0.00017931,0.000
 03020,0.00119613,-0.00005853,0.00003160,-0.00003763,0.00000583,0.00006
 222,0.00006508,0.00007590,0.00003488,-0.00019055,-0.00017114,-0.000511
 23,-0.00138300,0.00034413,-0.00064837,0.00091366,-0.00022542,-0.001841
 33,-0.00766487,0.00174584,0.00115908,-0.00147190,0.00001334,0.00000905
 ,0.00002863,-0.00000112,0.00000822,0.00002171,-0.00000311,0.00002193,0
 .00002554,-0.00001231,-0.00000008,0.00002043,-0.00010490,-0.00066549,-
 0.00212630,0.00005753,0.00002334,-0.00000407,-0.00000292,-0.00000268,0
 .00000643,-0.00000132,-0.00000071,0.00000818,0.00018539,-0.00007940,0.
 00005911,-0.00001572,-0.00000670,0.00000274,0.00000163,0.00001559,-0.0
 0000958,-0.00134633,0.00197456,0.00895960\\0.00003532,0.00001233,-0.00
 000378,-0.00004681,0.00001420,-0.00002913,0.00003386,0.00001847,0.0000
 0577,-0.00003176,0.00000221,0.00000888,0.00003090,-0.00000806,-0.00001
 292,-0.00003310,0.00000293,-0.00000632,-0.00002405,0.00000376,-0.00000
 314,0.00000909,0.00000031,-0.00000453,-0.00000212,-0.00000536,0.000000
 46,0.00000589,-0.00001782,0.00000546,-0.00000265,-0.00001107,0.0000062
 9,-0.00000180,-0.00000608,0.00001535,-0.00001151,0.00000142,-0.0000009
 9,0.00001592,-0.00000183,0.00002247,0.00000702,0.00000273,0.00000203,-
 0.00000773,0.00000450,-0.00001272,-0.00000802,-0.00000737,-0.00000347,
 -0.00000367,-0.00001144,0.00000298,0.00000346,-0.00000917,0.00001329,0
 .00000462,-0.00000259,0.00000851,-0.00001994,-0.00000470,0.00002171,-0
 .00000687,-0.00000190,-0.00002001,-0.00000294,0.00002048,-0.00003027,0
 .00004772,0.00000310,0.00000319,-0.00000289,0.00000115,-0.00000297,0.0
 0000303,0.00000469,0.00000317,0.00000904,-0.00000493,0.00001068\\\@
 The archive entry for this job was punched.


 THE UNDERLYING PHYSICAL LAWS NECESSARY FOR THE 
 MATHEMATICAL THEORY OF A LARGE PART OF PHYSICS AND THE
 WHOLE OF CHEMISTRY ARE THUS COMPLETELY KNOWN, AND THE
 DIFFICULTY IS ONLY THAT THE EXACT APPLICATION OF THESE
 LAWS LEADS TO EQUATIONS MUCH TOO COMPLICATED 
 TO BE SOLUBLE.

                                        -- P. A. M. DIRAC, 1929
 Job cpu time:       4 days 12 hours 43 minutes 18.2 seconds.
 Elapsed time:       0 days  3 hours  1 minutes 26.7 seconds.
 File lengths (MBytes):  RWF=   1678 Int=      0 D2E=      0 Chk=    268 Scr=      1
 Normal termination of Gaussian 16 at Tue Apr 19 22:45:49 2022.
